 Entering Gaussian System, Link 0=g09
 Initial command:
 /share/apps//g09/l1.exe "/scratch/Gau-39830.inp" -scrdir="/scratch/"
 Entering Link 1 = /share/apps//g09/l1.exe PID=     39831.
  
 Copyright (c) 1988,1990,1992,1993,1995,1998,2003,2009,2013,
            Gaussian, Inc.  All Rights Reserved.
  
 This is part of the Gaussian(R) 09 program.  It is based on
 the Gaussian(R) 03 system (copyright 2003, Gaussian, Inc.),
 the Gaussian(R) 98 system (copyright 1998, Gaussian, Inc.),
 the Gaussian(R) 94 system (copyright 1995, Gaussian, Inc.),
 the Gaussian 92(TM) system (copyright 1992, Gaussian, Inc.),
 the Gaussian 90(TM) system (copyright 1990, Gaussian, Inc.),
 the Gaussian 88(TM) system (copyright 1988, Gaussian, Inc.),
 the Gaussian 86(TM) system (copyright 1986, Carnegie Mellon
 University), and the Gaussian 82(TM) system (copyright 1983,
 Carnegie Mellon University). Gaussian is a federally registered
 trademark of Gaussian, Inc.
  
 This software contains proprietary and confidential information,
 including trade secrets, belonging to Gaussian, Inc.
  
 This software is provided under written license and may be
 used, copied, transmitted, or stored only in accord with that
 written license.
  
 The following legend is applicable only to US Government
 contracts under FAR:
  
                    RESTRICTED RIGHTS LEGEND
  
 Use, reproduction and disclosure by the US Government is
 subject to restrictions as set forth in subparagraphs (a)
 and (c) of the Commercial Computer Software - Restricted
 Rights clause in FAR 52.227-19.
  
 Gaussian, Inc.
 340 Quinnipiac St., Bldg. 40, Wallingford CT 06492
  
  
 ---------------------------------------------------------------
 Warning -- This program may not be used in any manner that
 competes with the business of Gaussian, Inc. or will provide
 assistance to any competitor of Gaussian, Inc.  The licensee
 of this program is prohibited from giving any competitor of
 Gaussian, Inc. access to this program.  By using this program,
 the user acknowledges that Gaussian, Inc. is engaged in the
 business of creating and licensing software in the field of
 computational chemistry and represents and warrants to the
 licensee that it is not a competitor of Gaussian, Inc. and that
 it will not use this program in any manner prohibited above.
 ---------------------------------------------------------------
  

 Cite this work as:
 Gaussian 09, Revision D.01,
 M. J. Frisch, G. W. Trucks, H. B. Schlegel, G. E. Scuseria, 
 M. A. Robb, J. R. Cheeseman, G. Scalmani, V. Barone, B. Mennucci, 
 G. A. Petersson, H. Nakatsuji, M. Caricato, X. Li, H. P. Hratchian, 
 A. F. Izmaylov, J. Bloino, G. Zheng, J. L. Sonnenberg, M. Hada, 
 M. Ehara, K. Toyota, R. Fukuda, J. Hasegawa, M. Ishida, T. Nakajima, 
 Y. Honda, O. Kitao, H. Nakai, T. Vreven, J. A. Montgomery, Jr., 
 J. E. Peralta, F. Ogliaro, M. Bearpark, J. J. Heyd, E. Brothers, 
 K. N. Kudin, V. N. Staroverov, T. Keith, R. Kobayashi, J. Normand, 
 K. Raghavachari, A. Rendell, J. C. Burant, S. S. Iyengar, J. Tomasi, 
 M. Cossi, N. Rega, J. M. Millam, M. Klene, J. E. Knox, J. B. Cross, 
 V. Bakken, C. Adamo, J. Jaramillo, R. Gomperts, R. E. Stratmann, 
 O. Yazyev, A. J. Austin, R. Cammi, C. Pomelli, J. W. Ochterski, 
 R. L. Martin, K. Morokuma, V. G. Zakrzewski, G. A. Voth, 
 P. Salvador, J. J. Dannenberg, S. Dapprich, A. D. Daniels, 
 O. Farkas, J. B. Foresman, J. V. Ortiz, J. Cioslowski, 
 and D. J. Fox, Gaussian, Inc., Wallingford CT, 2013.
 
 ******************************************
 Gaussian 09:  EM64L-G09RevD.01 24-Apr-2013
                10-Jan-2017 
 ******************************************
 %nproc=20
 Will use up to   20 processors via shared memory.
 %mem=100GB
 %chk=Ac-4_cGalMe.chk
 -------------------------------------------------------------------
 #P PBE1PBE/6-311+G(d,p) opt optcyc=999 freq EmpiricalDispersion=GD3
 -------------------------------------------------------------------
 1/6=999,14=-1,18=20,19=15,26=3,38=1/1,3;
 2/9=110,12=2,17=6,18=5,40=1/2;
 3/5=4,6=6,7=111,11=2,16=1,25=1,30=1,71=1,74=-13,124=31/1,2,3;
 4//1;
 5/5=2,38=5/2;
 6/7=2,8=2,9=2,10=2,28=1/1;
 7//1,2,3,16;
 1/6=999,14=-1,18=20,19=15,26=3/3(2);
 2/9=110/2;
 99//99;
 2/9=110/2;
 3/5=4,6=6,7=111,11=2,16=1,25=1,30=1,71=1,74=-13,124=31/1,2,3;
 4/5=5,16=3,69=1/1;
 5/5=2,38=5/2;
 7//1,2,3,16;
 1/6=999,14=-1,18=20,19=15,26=3/3(-5);
 2/9=110/2;
 6/7=2,8=2,9=2,10=2,19=2,28=1/1;
 99/9=1/99;
 Leave Link    1 at Tue Jan 10 01:50:01 2017, MaxMem= 13421772800 cpu:         1.5
 (Enter /share/apps//g09/l101.exe)
 -------
 disacch
 -------
 Symbolic Z-matrix:
 Charge =  1 Multiplicity = 1
 C                    -1.69531   1.04555   0.85158 
 C                    -0.86095   0.13536   1.76952 
 C                     0.5494    0.63824   2.09729 
 C                     1.35604   0.98578   0.82309 
 C                     1.11931  -0.1148   -0.25376 
 C                    -0.30009  -0.68231  -0.22812 
 O                    -0.77961  -1.0804    0.97174 
 O                     0.95601   2.26503   0.352 
 O                     0.33653   1.75686   2.96847 
 O                    -1.26272   0.63742  -0.52327 
 H                    -1.45569   2.10923   0.94489 
 H                    -2.76754   0.83908   0.9407 
 H                    -1.40584  -0.11314   2.68769 
 H                     1.08333  -0.16511   2.6293 
 H                     2.42583   0.98177   1.0834 
 H                     1.30067   0.32295  -1.25294 
 H                    -0.51629  -1.41876  -1.0119 
 O                     1.9      -1.27639  -0.0316 
 C                    -2.36647   0.39315  -1.46865 
 H                    -1.89816   0.18588  -2.43527 
 H                    -2.98135  -0.44653  -1.12126 
 H                    -2.94433   1.32088  -1.52409 
 C                     3.17952  -1.25312  -0.69012 
 H                     3.05833  -1.19774  -1.78405 
 H                     3.79679  -0.41008  -0.34116 
 H                     3.67221  -2.19344  -0.42326 
 C                     2.03343   3.02465  -0.21522 
 H                     2.84513   3.1553    0.51803 
 H                     2.43751   2.55132  -1.12663 
 H                     1.61728   4.00289  -0.47932 
 C                     1.46839   2.22944   3.62226 
 O                     2.56246   1.73947   3.44867 
 C                     1.11535   3.36417   4.53514 
 H                     0.63298   2.9632    5.43827 
 H                     0.40698   4.05069   4.05678 
 H                     2.02819   3.89082   4.82739 
 
 NAtoms=     36 NQM=       36 NQMF=       0 NMMI=      0 NMMIF=      0
                NMic=       0 NMicF=      0.
                    Isotopes and Nuclear Properties:
 (Nuclear quadrupole moments (NQMom) in fm**2, nuclear magnetic moments (NMagM)
  in nuclear magnetons)

  Atom         1           2           3           4           5           6           7           8           9          10
 IAtWgt=          12          12          12          12          12          12          16          16          16          16
 AtmWgt=  12.0000000  12.0000000  12.0000000  12.0000000  12.0000000  12.0000000  15.9949146  15.9949146  15.9949146  15.9949146
 NucSpn=           0           0           0           0           0           0           0           0           0           0
 AtZEff=   0.0000000   0.0000000   0.0000000   0.0000000   0.0000000   0.0000000   0.0000000   0.0000000   0.0000000   0.0000000
 NQMom=    0.0000000   0.0000000   0.0000000   0.0000000   0.0000000   0.0000000   0.0000000   0.0000000   0.0000000   0.0000000
 NMagM=    0.0000000   0.0000000   0.0000000   0.0000000   0.0000000   0.0000000   0.0000000   0.0000000   0.0000000   0.0000000
 AtZNuc=   6.0000000   6.0000000   6.0000000   6.0000000   6.0000000   6.0000000   8.0000000   8.0000000   8.0000000   8.0000000

  Atom        11          12          13          14          15          16          17          18          19          20
 IAtWgt=           1           1           1           1           1           1           1          16          12           1
 AtmWgt=   1.0078250   1.0078250   1.0078250   1.0078250   1.0078250   1.0078250   1.0078250  15.9949146  12.0000000   1.0078250
 NucSpn=           1           1           1           1           1           1           1           0           0           1
 AtZEff=   0.0000000   0.0000000   0.0000000   0.0000000   0.0000000   0.0000000   0.0000000   0.0000000   0.0000000   0.0000000
 NQMom=    0.0000000   0.0000000   0.0000000   0.0000000   0.0000000   0.0000000   0.0000000   0.0000000   0.0000000   0.0000000
 NMagM=    2.7928460   2.7928460   2.7928460   2.7928460   2.7928460   2.7928460   2.7928460   0.0000000   0.0000000   2.7928460
 AtZNuc=   1.0000000   1.0000000   1.0000000   1.0000000   1.0000000   1.0000000   1.0000000   8.0000000   6.0000000   1.0000000

  Atom        21          22          23          24          25          26          27          28          29          30
 IAtWgt=           1           1          12           1           1           1          12           1           1           1
 AtmWgt=   1.0078250   1.0078250  12.0000000   1.0078250   1.0078250   1.0078250  12.0000000   1.0078250   1.0078250   1.0078250
 NucSpn=           1           1           0           1           1           1           0           1           1           1
 AtZEff=   0.0000000   0.0000000   0.0000000   0.0000000   0.0000000   0.0000000   0.0000000   0.0000000   0.0000000   0.0000000
 NQMom=    0.0000000   0.0000000   0.0000000   0.0000000   0.0000000   0.0000000   0.0000000   0.0000000   0.0000000   0.0000000
 NMagM=    2.7928460   2.7928460   0.0000000   2.7928460   2.7928460   2.7928460   0.0000000   2.7928460   2.7928460   2.7928460
 AtZNuc=   1.0000000   1.0000000   6.0000000   1.0000000   1.0000000   1.0000000   6.0000000   1.0000000   1.0000000   1.0000000

  Atom        31          32          33          34          35          36
 IAtWgt=          12          16          12           1           1           1
 AtmWgt=  12.0000000  15.9949146  12.0000000   1.0078250   1.0078250   1.0078250
 NucSpn=           0           0           0           1           1           1
 AtZEff=   0.0000000   0.0000000   0.0000000   0.0000000   0.0000000   0.0000000
 NQMom=    0.0000000   0.0000000   0.0000000   0.0000000   0.0000000   0.0000000
 NMagM=    0.0000000   0.0000000   0.0000000   2.7928460   2.7928460   2.7928460
 AtZNuc=   6.0000000   8.0000000   6.0000000   1.0000000   1.0000000   1.0000000
 Leave Link  101 at Tue Jan 10 01:50:01 2017, MaxMem= 13421772800 cpu:         4.6
 (Enter /share/apps//g09/l103.exe)

 GradGradGradGradGradGradGradGradGradGradGradGradGradGradGradGradGradGrad
 Berny optimization.
 Initialization pass.
                           ----------------------------
                           !    Initial Parameters    !
                           ! (Angstroms and Degrees)  !
 --------------------------                            --------------------------
 ! Name  Definition              Value          Derivative Info.                !
 --------------------------------------------------------------------------------
 ! R1    R(1,2)                  1.5386         estimate D2E/DX2                !
 ! R2    R(1,10)                 1.498          estimate D2E/DX2                !
 ! R3    R(1,11)                 1.0943         estimate D2E/DX2                !
 ! R4    R(1,12)                 1.0956         estimate D2E/DX2                !
 ! R5    R(2,3)                  1.5328         estimate D2E/DX2                !
 ! R6    R(2,7)                  1.4564         estimate D2E/DX2                !
 ! R7    R(2,13)                 1.0962         estimate D2E/DX2                !
 ! R8    R(3,4)                  1.5476         estimate D2E/DX2                !
 ! R9    R(3,9)                  1.4337         estimate D2E/DX2                !
 ! R10   R(3,14)                 1.1016         estimate D2E/DX2                !
 ! R11   R(4,5)                  1.5579         estimate D2E/DX2                !
 ! R12   R(4,8)                  1.4207         estimate D2E/DX2                !
 ! R13   R(4,15)                 1.101          estimate D2E/DX2                !
 ! R14   R(5,6)                  1.5289         estimate D2E/DX2                !
 ! R15   R(5,16)                 1.1058         estimate D2E/DX2                !
 ! R16   R(5,18)                 1.4171         estimate D2E/DX2                !
 ! R17   R(6,7)                  1.3521         estimate D2E/DX2                !
 ! R18   R(6,10)                 1.66           estimate D2E/DX2                !
 ! R19   R(6,17)                 1.097          estimate D2E/DX2                !
 ! R20   R(8,27)                 1.4351         estimate D2E/DX2                !
 ! R21   R(9,31)                 1.3899         estimate D2E/DX2                !
 ! R22   R(10,19)                1.4737         estimate D2E/DX2                !
 ! R23   R(18,23)                1.4392         estimate D2E/DX2                !
 ! R24   R(19,20)                1.0939         estimate D2E/DX2                !
 ! R25   R(19,21)                1.0972         estimate D2E/DX2                !
 ! R26   R(19,22)                1.0944         estimate D2E/DX2                !
 ! R27   R(23,24)                1.102          estimate D2E/DX2                !
 ! R28   R(23,25)                1.1016         estimate D2E/DX2                !
 ! R29   R(23,26)                1.0946         estimate D2E/DX2                !
 ! R30   R(27,28)                1.1016         estimate D2E/DX2                !
 ! R31   R(27,29)                1.1036         estimate D2E/DX2                !
 ! R32   R(27,30)                1.0954         estimate D2E/DX2                !
 ! R33   R(31,32)                1.2113         estimate D2E/DX2                !
 ! R34   R(31,33)                1.4985         estimate D2E/DX2                !
 ! R35   R(33,34)                1.0996         estimate D2E/DX2                !
 ! R36   R(33,35)                1.0963         estimate D2E/DX2                !
 ! R37   R(33,36)                1.0936         estimate D2E/DX2                !
 ! A1    A(2,1,10)             103.285          estimate D2E/DX2                !
 ! A2    A(2,1,11)             113.9161         estimate D2E/DX2                !
 ! A3    A(2,1,12)             111.7603         estimate D2E/DX2                !
 ! A4    A(10,1,11)            106.2513         estimate D2E/DX2                !
 ! A5    A(10,1,12)            107.8152         estimate D2E/DX2                !
 ! A6    A(11,1,12)            112.9888         estimate D2E/DX2                !
 ! A7    A(1,2,3)              115.6245         estimate D2E/DX2                !
 ! A8    A(1,2,7)              101.3795         estimate D2E/DX2                !
 ! A9    A(1,2,13)             111.3623         estimate D2E/DX2                !
 ! A10   A(3,2,7)              109.8537         estimate D2E/DX2                !
 ! A11   A(3,2,13)             110.648          estimate D2E/DX2                !
 ! A12   A(7,2,13)             107.2974         estimate D2E/DX2                !
 ! A13   A(2,3,4)              112.1606         estimate D2E/DX2                !
 ! A14   A(2,3,9)              104.436          estimate D2E/DX2                !
 ! A15   A(2,3,14)             108.0587         estimate D2E/DX2                !
 ! A16   A(4,3,9)              113.7324         estimate D2E/DX2                !
 ! A17   A(4,3,14)             107.9852         estimate D2E/DX2                !
 ! A18   A(9,3,14)             110.3342         estimate D2E/DX2                !
 ! A19   A(3,4,5)              109.3459         estimate D2E/DX2                !
 ! A20   A(3,4,8)              109.1751         estimate D2E/DX2                !
 ! A21   A(3,4,15)             108.1173         estimate D2E/DX2                !
 ! A22   A(5,4,8)              111.3542         estimate D2E/DX2                !
 ! A23   A(5,4,15)             107.9691         estimate D2E/DX2                !
 ! A24   A(8,4,15)             110.8094         estimate D2E/DX2                !
 ! A25   A(4,5,6)              113.0619         estimate D2E/DX2                !
 ! A26   A(4,5,16)             108.6622         estimate D2E/DX2                !
 ! A27   A(4,5,18)             112.7688         estimate D2E/DX2                !
 ! A28   A(6,5,16)             108.3218         estimate D2E/DX2                !
 ! A29   A(6,5,18)             101.8042         estimate D2E/DX2                !
 ! A30   A(16,5,18)            112.0728         estimate D2E/DX2                !
 ! A31   A(5,6,7)              116.9646         estimate D2E/DX2                !
 ! A32   A(5,6,10)             103.9039         estimate D2E/DX2                !
 ! A33   A(5,6,17)             114.8463         estimate D2E/DX2                !
 ! A34   A(7,6,10)             100.7313         estimate D2E/DX2                !
 ! A35   A(7,6,17)             111.4992         estimate D2E/DX2                !
 ! A36   A(10,6,17)            107.002          estimate D2E/DX2                !
 ! A37   A(2,7,6)              105.078          estimate D2E/DX2                !
 ! A38   A(4,8,27)             113.3451         estimate D2E/DX2                !
 ! A39   A(3,9,31)             115.4795         estimate D2E/DX2                !
 ! A40   A(1,10,6)             102.7613         estimate D2E/DX2                !
 ! A41   A(1,10,19)            114.6868         estimate D2E/DX2                !
 ! A42   A(6,10,19)            114.6219         estimate D2E/DX2                !
 ! A43   A(5,18,23)            113.8784         estimate D2E/DX2                !
 ! A44   A(10,19,20)           106.1189         estimate D2E/DX2                !
 ! A45   A(10,19,21)           110.0891         estimate D2E/DX2                !
 ! A46   A(10,19,22)           106.7062         estimate D2E/DX2                !
 ! A47   A(20,19,21)           112.0051         estimate D2E/DX2                !
 ! A48   A(20,19,22)           109.9933         estimate D2E/DX2                !
 ! A49   A(21,19,22)           111.6471         estimate D2E/DX2                !
 ! A50   A(18,23,24)           110.9308         estimate D2E/DX2                !
 ! A51   A(18,23,25)           111.4442         estimate D2E/DX2                !
 ! A52   A(18,23,26)           105.9455         estimate D2E/DX2                !
 ! A53   A(24,23,25)           109.7317         estimate D2E/DX2                !
 ! A54   A(24,23,26)           109.5529         estimate D2E/DX2                !
 ! A55   A(25,23,26)           109.1462         estimate D2E/DX2                !
 ! A56   A(8,27,28)            110.6627         estimate D2E/DX2                !
 ! A57   A(8,27,29)            111.9791         estimate D2E/DX2                !
 ! A58   A(8,27,30)            106.4257         estimate D2E/DX2                !
 ! A59   A(28,27,29)           109.3153         estimate D2E/DX2                !
 ! A60   A(28,27,30)           109.5415         estimate D2E/DX2                !
 ! A61   A(29,27,30)           108.8449         estimate D2E/DX2                !
 ! A62   A(9,31,32)            122.0454         estimate D2E/DX2                !
 ! A63   A(9,31,33)            110.6194         estimate D2E/DX2                !
 ! A64   A(32,31,33)           127.3297         estimate D2E/DX2                !
 ! A65   A(31,33,34)           109.121          estimate D2E/DX2                !
 ! A66   A(31,33,35)           111.1367         estimate D2E/DX2                !
 ! A67   A(31,33,36)           109.3171         estimate D2E/DX2                !
 ! A68   A(34,33,35)           107.6543         estimate D2E/DX2                !
 ! A69   A(34,33,36)           108.8008         estimate D2E/DX2                !
 ! A70   A(35,33,36)           110.7543         estimate D2E/DX2                !
 ! D1    D(10,1,2,3)            84.8057         estimate D2E/DX2                !
 ! D2    D(10,1,2,7)           -33.9289         estimate D2E/DX2                !
 ! D3    D(10,1,2,13)         -147.7818         estimate D2E/DX2                !
 ! D4    D(11,1,2,3)           -29.9825         estimate D2E/DX2                !
 ! D5    D(11,1,2,7)          -148.7171         estimate D2E/DX2                !
 ! D6    D(11,1,2,13)           97.4301         estimate D2E/DX2                !
 ! D7    D(12,1,2,3)          -159.5535         estimate D2E/DX2                !
 ! D8    D(12,1,2,7)            81.7119         estimate D2E/DX2                !
 ! D9    D(12,1,2,13)          -32.1409         estimate D2E/DX2                !
 ! D10   D(2,1,10,6)             7.2294         estimate D2E/DX2                !
 ! D11   D(2,1,10,19)          132.2771         estimate D2E/DX2                !
 ! D12   D(11,1,10,6)          127.4088         estimate D2E/DX2                !
 ! D13   D(11,1,10,19)        -107.5435         estimate D2E/DX2                !
 ! D14   D(12,1,10,6)         -111.1938         estimate D2E/DX2                !
 ! D15   D(12,1,10,19)          13.8539         estimate D2E/DX2                !
 ! D16   D(1,2,3,4)            -52.8277         estimate D2E/DX2                !
 ! D17   D(1,2,3,9)             70.7855         estimate D2E/DX2                !
 ! D18   D(1,2,3,14)          -171.7401         estimate D2E/DX2                !
 ! D19   D(7,2,3,4)             61.1167         estimate D2E/DX2                !
 ! D20   D(7,2,3,9)           -175.2702         estimate D2E/DX2                !
 ! D21   D(7,2,3,14)           -57.7958         estimate D2E/DX2                !
 ! D22   D(13,2,3,4)           179.4035         estimate D2E/DX2                !
 ! D23   D(13,2,3,9)           -56.9833         estimate D2E/DX2                !
 ! D24   D(13,2,3,14)           60.4911         estimate D2E/DX2                !
 ! D25   D(1,2,7,6)             53.5318         estimate D2E/DX2                !
 ! D26   D(3,2,7,6)            -69.2672         estimate D2E/DX2                !
 ! D27   D(13,2,7,6)           170.3939         estimate D2E/DX2                !
 ! D28   D(2,3,4,5)            -42.4889         estimate D2E/DX2                !
 ! D29   D(2,3,4,8)             79.5629         estimate D2E/DX2                !
 ! D30   D(2,3,4,15)          -159.8048         estimate D2E/DX2                !
 ! D31   D(9,3,4,5)           -160.7255         estimate D2E/DX2                !
 ! D32   D(9,3,4,8)            -38.6737         estimate D2E/DX2                !
 ! D33   D(9,3,4,15)            81.9587         estimate D2E/DX2                !
 ! D34   D(14,3,4,5)            76.4668         estimate D2E/DX2                !
 ! D35   D(14,3,4,8)          -161.4814         estimate D2E/DX2                !
 ! D36   D(14,3,4,15)          -40.849          estimate D2E/DX2                !
 ! D37   D(2,3,9,31)           167.7038         estimate D2E/DX2                !
 ! D38   D(4,3,9,31)           -69.7038         estimate D2E/DX2                !
 ! D39   D(14,3,9,31)           51.8057         estimate D2E/DX2                !
 ! D40   D(3,4,5,6)             35.0335         estimate D2E/DX2                !
 ! D41   D(3,4,5,16)           155.3259         estimate D2E/DX2                !
 ! D42   D(3,4,5,18)           -79.79           estimate D2E/DX2                !
 ! D43   D(8,4,5,6)            -85.6998         estimate D2E/DX2                !
 ! D44   D(8,4,5,16)            34.5926         estimate D2E/DX2                !
 ! D45   D(8,4,5,18)           159.4767         estimate D2E/DX2                !
 ! D46   D(15,4,5,6)           152.4425         estimate D2E/DX2                !
 ! D47   D(15,4,5,16)          -87.265          estimate D2E/DX2                !
 ! D48   D(15,4,5,18)           37.6191         estimate D2E/DX2                !
 ! D49   D(3,4,8,27)           144.4359         estimate D2E/DX2                !
 ! D50   D(5,4,8,27)           -94.7306         estimate D2E/DX2                !
 ! D51   D(15,4,8,27)           25.4648         estimate D2E/DX2                !
 ! D52   D(4,5,6,7)            -49.8151         estimate D2E/DX2                !
 ! D53   D(4,5,6,10)            60.1325         estimate D2E/DX2                !
 ! D54   D(4,5,6,17)           176.6572         estimate D2E/DX2                !
 ! D55   D(16,5,6,7)          -170.3016         estimate D2E/DX2                !
 ! D56   D(16,5,6,10)          -60.3541         estimate D2E/DX2                !
 ! D57   D(16,5,6,17)           56.1706         estimate D2E/DX2                !
 ! D58   D(18,5,6,7)            71.4296         estimate D2E/DX2                !
 ! D59   D(18,5,6,10)         -178.6228         estimate D2E/DX2                !
 ! D60   D(18,5,6,17)          -62.0981         estimate D2E/DX2                !
 ! D61   D(4,5,18,23)          -90.89           estimate D2E/DX2                !
 ! D62   D(6,5,18,23)          147.6619         estimate D2E/DX2                !
 ! D63   D(16,5,18,23)          32.1125         estimate D2E/DX2                !
 ! D64   D(5,6,7,2)             64.774          estimate D2E/DX2                !
 ! D65   D(10,6,7,2)           -46.9921         estimate D2E/DX2                !
 ! D66   D(17,6,7,2)          -160.2278         estimate D2E/DX2                !
 ! D67   D(5,6,10,1)           -97.849          estimate D2E/DX2                !
 ! D68   D(5,6,10,19)          137.061          estimate D2E/DX2                !
 ! D69   D(7,6,10,1)            23.6415         estimate D2E/DX2                !
 ! D70   D(7,6,10,19)         -101.4486         estimate D2E/DX2                !
 ! D71   D(17,6,10,1)          140.2574         estimate D2E/DX2                !
 ! D72   D(17,6,10,19)          15.1673         estimate D2E/DX2                !
 ! D73   D(4,8,27,28)          -57.529          estimate D2E/DX2                !
 ! D74   D(4,8,27,29)           64.7078         estimate D2E/DX2                !
 ! D75   D(4,8,27,30)         -176.4677         estimate D2E/DX2                !
 ! D76   D(3,9,31,32)            1.1054         estimate D2E/DX2                !
 ! D77   D(3,9,31,33)         -178.0997         estimate D2E/DX2                !
 ! D78   D(1,10,19,20)         175.6003         estimate D2E/DX2                !
 ! D79   D(1,10,19,21)         -63.0016         estimate D2E/DX2                !
 ! D80   D(1,10,19,22)          58.3215         estimate D2E/DX2                !
 ! D81   D(6,10,19,20)         -65.839          estimate D2E/DX2                !
 ! D82   D(6,10,19,21)          55.5591         estimate D2E/DX2                !
 ! D83   D(6,10,19,22)         176.8822         estimate D2E/DX2                !
 ! D84   D(5,18,23,24)         -61.9202         estimate D2E/DX2                !
 ! D85   D(5,18,23,25)          60.6671         estimate D2E/DX2                !
 ! D86   D(5,18,23,26)         179.2676         estimate D2E/DX2                !
 ! D87   D(9,31,33,34)          76.2468         estimate D2E/DX2                !
 ! D88   D(9,31,33,35)         -42.319          estimate D2E/DX2                !
 ! D89   D(9,31,33,36)        -164.8735         estimate D2E/DX2                !
 ! D90   D(32,31,33,34)       -102.9057         estimate D2E/DX2                !
 ! D91   D(32,31,33,35)        138.5285         estimate D2E/DX2                !
 ! D92   D(32,31,33,36)         15.9739         estimate D2E/DX2                !
 --------------------------------------------------------------------------------
 Trust Radius=3.00D-01 FncErr=1.00D-07 GrdErr=1.00D-06
 Number of steps in this run=    216 maximum allowed number of steps=    216.
 GradGradGradGradGradGradGradGradGradGradGradGradGradGradGradGradGradGrad

 Leave Link  103 at Tue Jan 10 01:50:02 2017, MaxMem= 13421772800 cpu:         0.2
 (Enter /share/apps//g09/l202.exe)
                          Input orientation:                          
 ---------------------------------------------------------------------
 Center     Atomic      Atomic             Coordinates (Angstroms)
 Number     Number       Type             X           Y           Z
 ---------------------------------------------------------------------
      1          6           0       -1.695310    1.045550    0.851580
      2          6           0       -0.860950    0.135360    1.769520
      3          6           0        0.549400    0.638240    2.097290
      4          6           0        1.356040    0.985780    0.823090
      5          6           0        1.119310   -0.114800   -0.253760
      6          6           0       -0.300090   -0.682310   -0.228120
      7          8           0       -0.779610   -1.080400    0.971740
      8          8           0        0.956010    2.265030    0.352000
      9          8           0        0.336530    1.756860    2.968470
     10          8           0       -1.262720    0.637420   -0.523270
     11          1           0       -1.455690    2.109230    0.944890
     12          1           0       -2.767540    0.839080    0.940700
     13          1           0       -1.405840   -0.113140    2.687690
     14          1           0        1.083330   -0.165110    2.629300
     15          1           0        2.425830    0.981770    1.083400
     16          1           0        1.300670    0.322950   -1.252940
     17          1           0       -0.516290   -1.418760   -1.011900
     18          8           0        1.900000   -1.276390   -0.031600
     19          6           0       -2.366470    0.393150   -1.468650
     20          1           0       -1.898160    0.185880   -2.435270
     21          1           0       -2.981350   -0.446530   -1.121260
     22          1           0       -2.944330    1.320880   -1.524090
     23          6           0        3.179520   -1.253120   -0.690120
     24          1           0        3.058330   -1.197740   -1.784050
     25          1           0        3.796790   -0.410080   -0.341160
     26          1           0        3.672210   -2.193440   -0.423260
     27          6           0        2.033430    3.024650   -0.215220
     28          1           0        2.845130    3.155300    0.518030
     29          1           0        2.437510    2.551320   -1.126630
     30          1           0        1.617280    4.002890   -0.479320
     31          6           0        1.468390    2.229440    3.622260
     32          8           0        2.562460    1.739470    3.448670
     33          6           0        1.115350    3.364170    4.535140
     34          1           0        0.632980    2.963200    5.438270
     35          1           0        0.406980    4.050690    4.056780
     36          1           0        2.028190    3.890820    4.827390
 ---------------------------------------------------------------------
                    Distance matrix (angstroms):
                    1          2          3          4          5
     1  C    0.000000
     2  C    1.538576   0.000000
     3  C    2.599311   1.532778   0.000000
     4  C    3.052068   2.556167   1.547591   0.000000
     5  C    3.238869   2.842124   2.533634   1.557859   0.000000
     6  C    2.469391   2.230182   2.805890   2.574943   1.528863
     7  O    2.317889   1.456414   2.446805   2.975264   2.457668
     8  O    2.960779   3.137866   2.420292   1.420715   2.461139
     9  O    3.019198   2.345357   1.433729   2.497323   3.807706
    10  O    1.497971   2.381254   3.186081   2.965121   2.512476
    11  H    1.094322   2.220336   2.740844   3.030314   3.607450
    12  H    1.095559   2.194823   3.518541   4.127864   4.176628
    13  H    2.190355   1.096218   2.176260   3.508894   3.876663
    14  H    3.513805   2.147028   1.101584   2.159007   2.883723
    15  H    4.128148   3.462671   2.160318   1.101012   2.167362
    16  H    3.731896   3.720626   3.447877   2.179979   1.105838
    17  H    3.306882   3.204743   3.877371   3.557333   2.224921
    18  O    4.370088   3.586073   3.165770   2.478669   1.417083
    19  C    2.501909   3.580334   4.612840   4.411390   3.726209
    20  H    3.403463   4.331122   5.171004   4.674031   3.735575
    21  H    2.787884   3.631983   4.899182   4.964369   4.204523
    22  H    2.698086   4.073548   5.078045   4.910675   4.493115
    23  C    5.605773   4.929818   4.273690   3.259993   2.393877
    24  H    5.880135   5.455802   4.972962   3.802990   2.697099
    25  H    5.805571   5.142666   4.194110   3.043216   2.695130
    26  H    6.397386   5.548075   4.911571   4.126193   3.296479
    27  C    4.354125   4.545836   3.639368   2.386197   3.270053
    28  H    5.017758   4.941791   3.755001   2.649013   3.777257
    29  H    4.822951   5.010428   4.197439   2.724317   3.099637
    30  H    4.635775   5.114362   4.370373   3.296585   4.153820
    31  C    4.368897   3.639181   2.387885   3.065072   4.543220
    32  O    5.035376   4.136720   2.662958   2.986163   4.385087
    33  C    5.181160   4.688244   3.700555   4.415199   5.919190
    34  H    5.489630   4.867056   4.071188   5.072760   6.489207
    35  H    4.870708   4.708398   3.937601   4.555342   6.036512
    36  H    6.145493   5.639253   4.496615   4.992541   6.533693
                    6          7          8          9         10
     6  C    0.000000
     7  O    1.352065   0.000000
     8  O    3.255939   3.819471   0.000000
     9  O    4.070998   3.644550   2.736404   0.000000
    10  O    1.659957   2.327951   2.887555   4.000374   0.000000
    11  H    3.240997   3.260605   2.488391   2.726003   2.087811
    12  H    3.125552   2.763554   4.030475   3.819610   2.109113
    13  H    3.169950   2.066940   4.085275   2.571301   3.300619
    14  H    3.216550   2.656277   3.332850   2.089669   4.010823
    15  H    3.452519   3.813117   2.083764   2.918806   4.037990
    16  H    2.150171   3.353529   2.542892   4.561356   2.683706
    17  H    1.097001   2.029446   4.195021   5.162868   2.241382
    18  O    2.287345   2.867998   3.685095   4.543728   3.729237
    19  C    2.639215   3.262664   4.225822   5.371587   1.473660
    20  H    2.859911   3.802938   4.498669   6.054934   2.064804
    21  H    2.835921   3.103240   5.002585   5.708690   2.118072
    22  H    3.561504   4.084278   4.429874   5.580073   2.072817
    23  C    3.556256   4.297246   4.290383   5.525202   4.830681
    24  H    3.737054   4.726302   4.579654   6.222885   4.860952
    25  H    4.107470   4.807959   3.963170   5.255728   5.170016
    26  H    4.254499   4.796205   5.277947   6.183483   5.690106
    27  C    4.380301   5.116005   1.435129   3.823956   4.081466
    28  H    5.017609   5.593366   2.094975   3.775363   4.929347
    29  H    4.331066   5.286058   2.112617   4.670667   4.209366
    30  H    5.068580   5.804351   2.036794   4.309551   4.429754
    31  C    5.141132   4.799354   3.310347   1.389921   5.213339
    32  O    5.251476   5.025563   3.527926   2.277204   5.623417
    33  C    6.408285   6.003574   4.328066   2.375807   6.219155
    34  H    6.802083   6.188376   5.144116   2.764607   6.674046
    35  H    6.423520   6.103569   4.149146   2.539889   5.951064
    36  H    7.203651   6.889326   4.880766   3.297132   7.074197
                   11         12         13         14         15
    11  H    0.000000
    12  H    1.825993   0.000000
    13  H    2.824671   2.411001   0.000000
    14  H    3.802168   4.323074   2.490397   0.000000
    15  H    4.044323   5.197289   4.295843   2.346795   0.000000
    16  H    3.952059   4.650675   4.800410   3.918830   2.675540
    17  H    4.142247   3.738799   4.022799   4.169983   4.336922
    18  O    4.865862   5.215986   4.435794   2.997046   2.572743
    19  C    3.098326   2.482877   4.295847   5.385719   5.461279
    20  H    3.914146   3.546782   5.155241   5.887474   5.631285
    21  H    3.623330   2.439300   4.135394   5.537826   6.011502
    22  H    2.988881   2.517653   4.707702   5.973346   5.979349
    23  C    5.955151   6.511866   5.808156   4.073859   2.950958
    24  H    6.225716   6.746381   6.411055   4.944149   3.656855
    25  H    5.965685   6.803969   6.027393   4.030696   2.417881
    26  H    6.832288   7.247547   6.308110   4.487153   3.729001
    27  C    3.789170   5.400202   5.486455   4.378191   2.452295
    28  H    4.446743   6.086509   5.784537   4.311209   2.284664
    29  H    4.432115   5.856463   6.034876   4.829058   2.710693
    30  H    3.880395   5.590420   6.009235   5.226935   3.496143
    31  C    3.966485   5.202592   3.823912   2.620708   2.986500
    32  O    4.748807   5.958986   4.445071   2.546884   2.487424
    33  C    4.590753   5.862842   4.675591   4.011118   4.394052
    34  H    5.028148   6.025243   4.602863   4.228410   5.109332
    35  H    4.113717   5.486526   4.743227   4.502013   4.725993
    36  H    5.512285   6.886109   5.692326   4.709026   4.757957
                   16         17         18         19         20
    16  H    0.000000
    17  H    2.528438   0.000000
    18  O    2.099704   2.611458   0.000000
    19  C    3.674150   2.629602   4.801588   0.000000
    20  H    3.413093   2.551552   4.726720   1.093906   0.000000
    21  H    4.352601   2.652115   5.069872   1.097187   1.816553
    22  H    4.369143   3.696396   5.695689   1.094385   1.792469
    23  C    2.516116   3.713488   1.439223   5.837321   5.558696
    24  H    2.384102   3.663738   2.102141   5.662055   5.187030
    25  H    2.756681   4.479954   2.108111   6.316818   6.096960
    26  H    3.555951   4.300018   2.033496   6.651988   6.382662
    27  C    2.985462   5.184560   4.307025   5.277784   5.333351
    28  H    3.680204   5.878933   4.564564   6.223917   6.327577
    29  H    2.504794   4.949710   4.017384   5.277585   5.109391
    30  H    3.773684   5.850645   5.305769   5.466193   5.545595
    31  C    5.237405   6.222842   5.082108   6.632909   7.225197
    32  O    5.069889   6.272942   4.652585   7.091330   7.545298
    33  C    6.541042   7.503887   6.557865   7.549538   8.232216
    34  H    7.224197   7.882074   7.035548   7.956595   8.724265
    35  H    6.548882   7.513909   6.879080   7.183314   7.899186
    36  H    7.087270   8.292366   7.094101   8.437230   9.049256
                   21         22         23         24         25
    21  H    0.000000
    22  H    1.813114   0.000000
    23  C    6.228386   6.694962   0.000000
    24  H    6.122201   6.514826   1.102015   0.000000
    25  H    6.822981   7.059621   1.101595   1.802127   0.000000
    26  H    6.914388   7.572376   1.094605   1.794440   1.789590
    27  C    6.165875   5.421630   4.454028   4.619548   3.862987
    28  H    7.043317   6.407277   4.583188   4.928893   3.788905
    29  H    6.192833   5.534994   3.900626   3.856562   3.351790
    30  H    6.430927   5.393793   5.487319   5.552071   4.923785
    31  C    7.032921   6.839773   5.801104   6.595579   5.300680
    32  O    7.509773   7.431574   5.144506   6.021167   4.528460
    33  C    7.956082   7.574319   7.272105   8.032332   6.724090
    34  H    8.229038   7.998051   7.862530   8.680878   7.402062
    35  H    7.649697   7.058984   7.638746   8.288002   7.122581
    36  H    8.904748   8.465923   7.630766   8.406293   6.952668
                   26         27         28         29         30
    26  H    0.000000
    27  C    5.473330   0.000000
    28  H    5.493551   1.101627   0.000000
    29  H    4.952975   1.103626   1.798848   0.000000
    30  H    6.528429   1.095392   1.794640   1.788531   0.000000
    31  C    6.386307   3.959531   3.519783   4.857443   4.471046
    32  O    5.629491   3.918629   3.266975   4.648450   4.630933
    33  C    7.874661   4.850161   4.378691   5.870645   5.079833
    34  H    8.377672   5.824688   5.398080   6.820842   6.088323
    35  H    8.349949   4.684878   4.389653   5.765319   4.695031
    36  H    8.203069   5.116463   4.447355   6.116548   5.323775
                   31         32         33         34         35
    31  C    0.000000
    32  O    1.211278   0.000000
    33  C    1.498532   2.431912   0.000000
    34  H    2.129367   3.029673   1.099592   0.000000
    35  H    2.152290   3.218327   1.096324   1.772632   0.000000
    36  H    2.127416   2.610483   1.093639   1.783330   1.802143
                   36
    36  H    0.000000
 Stoichiometry    C11H19O6(1+)
 Framework group  C1[X(C11H19O6)]
 Deg. of freedom   102
 Full point group                 C1      NOp   1
 Largest Abelian subgroup         C1      NOp   1
 Largest concise Abelian subgroup C1      NOp   1
                         Standard orientation:                         
 ---------------------------------------------------------------------
 Center     Atomic      Atomic             Coordinates (Angstroms)
 Number     Number       Type             X           Y           Z
 ---------------------------------------------------------------------
      1          6           0       -0.803604   -2.123434    0.069410
      2          6           0       -0.293828   -1.311848   -1.134198
      3          6           0        0.723991   -0.212781   -0.809381
      4          6           0        0.217132    0.743911    0.296454
      5          6           0       -1.282474    1.079711    0.040832
      6          6           0       -2.067069   -0.093331   -0.547218
      7          8           0       -1.529134   -0.713688   -1.621398
      8          8           0        0.401000    0.130356    1.564592
      9          8           0        1.917176   -0.924135   -0.454607
     10          8           0       -1.924682   -1.283897    0.600710
     11          1           0       -0.077168   -2.214541    0.882755
     12          1           0       -1.223607   -3.087110   -0.239096
     13          1           0        0.085250   -1.967864   -1.926433
     14          1           0        0.889244    0.380372   -1.722808
     15          1           0        0.791411    1.680812    0.228276
     16          1           0       -1.750220    1.363939    1.001719
     17          1           0       -3.139363    0.092400   -0.685429
     18          8           0       -1.460109    2.074414   -0.952716
     19          6           0       -3.169543   -2.022692    0.876711
     20          1           0       -3.857193   -1.301321    1.327698
     21          1           0       -3.569978   -2.446847   -0.052571
     22          1           0       -2.918020   -2.803335    1.601287
     23          6           0       -1.502099    3.415905   -0.433101
     24          1           0       -2.354148    3.545592    0.253652
     25          1           0       -0.564904    3.677210    0.083519
     26          1           0       -1.628206    4.070783   -1.301082
     27          6           0        0.752783    1.059484    2.600239
     28          1           0        1.671143    1.607303    2.335492
     29          1           0       -0.057835    1.781125    2.800547
     30          1           0        0.928301    0.464872    3.503297
     31          6           0        3.070729   -0.153175   -0.372044
     32          8           0        3.060117    1.042259   -0.567025
     33          6           0        4.255172   -1.009442   -0.041139
     34          1           0        4.562960   -1.561715   -0.940785
     35          1           0        4.006976   -1.745717    0.732311
     36          1           0        5.083279   -0.372272    0.281819
 ---------------------------------------------------------------------
 Rotational constants (GHZ):      0.6209221      0.3840979      0.3197101
 Leave Link  202 at Tue Jan 10 01:50:02 2017, MaxMem= 13421772800 cpu:         0.7
 (Enter /share/apps//g09/l301.exe)
 Standard basis: 6-311+G(d,p) (5D, 7F)
 Ernie: Thresh=  0.10000D-02 Tol=  0.10000D-05 Strict=F.
 There are   505 symmetry adapted cartesian basis functions of A   symmetry.
 There are   488 symmetry adapted basis functions of A   symmetry.
   488 basis functions,   764 primitive gaussians,   505 cartesian basis functions
    66 alpha electrons       66 beta electrons
       nuclear repulsion energy      1440.8262223019 Hartrees.
 IExCor= 1009 DFT=T Ex+Corr=PBE1PBE ExCW=0 ScaHFX=  0.250000
 ScaDFX=  0.750000  0.750000  1.000000  1.000000 ScalE2=  1.000000  1.000000
 IRadAn=      0 IRanWt=     -1 IRanGd=            0 ICorTp=0 IEmpDi=131
 NAtoms=   36 NActive=   36 NUniq=   36 SFac= 1.00D+00 NAtFMM=   60 NAOKFM=F Big=F
 Integral buffers will be    131072 words long.
 Raffenetti 2 integral format.
 Two-electron integral symmetry is turned on.
 R6Disp:  Grimme-D3 Dispersion energy=       -0.0256373325 Hartrees.
 Nuclear repulsion after empirical dispersion term =     1440.8005849694 Hartrees.
 Leave Link  301 at Tue Jan 10 01:50:02 2017, MaxMem= 13421772800 cpu:         1.6
 (Enter /share/apps//g09/l302.exe)
 NPDir=0 NMtPBC=     1 NCelOv=     1 NCel=       1 NClECP=     1 NCelD=      1
         NCelK=      1 NCelE2=     1 NClLst=     1 CellRange=     0.0.
 One-electron integrals computed using PRISM.
 NBasis=   488 RedAO= T EigKep=  2.21D-06  NBF=   488
 NBsUse=   488 1.00D-06 EigRej= -1.00D+00 NBFU=   488
 Precomputing XC quadrature grid using
 IXCGrd= 4 IRadAn=           0 IRanWt=          -1 IRanGd=           0 AccXCQ= 0.00D+00.
 Generated NRdTot=       0 NPtTot=           0 NUsed=           0 NTot=          32
 NSgBfM=   504   504   505   505   505 MxSgAt=    36 MxSgA2=    36.
 Leave Link  302 at Tue Jan 10 01:50:03 2017, MaxMem= 13421772800 cpu:        13.3
 (Enter /share/apps//g09/l303.exe)
 DipDrv:  MaxL=1.
 Leave Link  303 at Tue Jan 10 01:50:03 2017, MaxMem= 13421772800 cpu:         6.0
 (Enter /share/apps//g09/l401.exe)
 ExpMin= 4.38D-02 ExpMax= 8.59D+03 ExpMxC= 1.30D+03 IAcc=2 IRadAn=         4 AccDes= 0.00D+00
 Harris functional with IExCor= 1009 and IRadAn=       4 diagonalized for initial guess.
 HarFok:  IExCor= 1009 AccDes= 0.00D+00 IRadAn=         4 IDoV= 1 UseB2=F ITyADJ=14
 ICtDFT=  3500011 ScaDFX=  1.000000  1.000000  1.000000  1.000000
 FoFCou: FMM=F IPFlag=           0 FMFlag=      100000 FMFlg1=           0
         NFxFlg=           0 DoJE=T BraDBF=F KetDBF=T FulRan=T
         wScrn=  0.000000 ICntrl=     500 IOpCl=  0 I1Cent=   200000004 NGrid=           0
         NMat0=    1 NMatS0=      1 NMatT0=    0 NMatD0=    1 NMtDS0=    0 NMtDT0=    0
 Petite list used in FoFCou.
 Harris En= -881.099631677906    
 JPrj=0 DoOrth=F DoCkMO=F.
 Leave Link  401 at Tue Jan 10 01:50:05 2017, MaxMem= 13421772800 cpu:        23.6
 (Enter /share/apps//g09/l502.exe)
 Closed shell SCF:
 Using DIIS extrapolation, IDIIS=  1040.
 Integral symmetry usage will be decided dynamically.
 Keep R1 ints in memory in canonical form, NReq=7183787934.
 IVT=      797493 IEndB=      797493 NGot= 13421772800 MDV=  6302761722
 LenX=  6302761722 LenY=  6302506192
 Requested convergence on RMS density matrix=1.00D-08 within 128 cycles.
 Requested convergence on MAX density matrix=1.00D-06.
 Requested convergence on             energy=1.00D-06.
 No special actions if energy rises.
 FoFCou: FMM=F IPFlag=           0 FMFlag=           0 FMFlg1=           0
         NFxFlg=           0 DoJE=F BraDBF=F KetDBF=F FulRan=T
         wScrn=  0.000000 ICntrl=     600 IOpCl=  0 I1Cent=           0 NGrid=           0
         NMat0=    1 NMatS0= 119316 NMatT0=    0 NMatD0=    1 NMtDS0=    0 NMtDT0=    0
 Symmetry not used in FoFCou.

 Cycle   1  Pass 1  IDiag  1:
 E= -880.621148782473    
 DIIS: error= 1.59D-02 at cycle   1 NSaved=   1.
 NSaved= 1 IEnMin= 1 EnMin= -880.621148782473     IErMin= 1 ErrMin= 1.59D-02
 ErrMax= 1.59D-02  0.00D+00 EMaxC= 1.00D-01 BMatC= 4.02D-01 BMatP= 4.02D-01
 IDIUse=3 WtCom= 8.41D-01 WtEn= 1.59D-01
 Coeff-Com:  0.100D+01
 Coeff-En:   0.100D+01
 Coeff:      0.100D+01
 Gap=     0.260 Goal=   None    Shift=    0.000
 GapD=    0.260 DampG=1.000 DampE=0.500 DampFc=0.5000 IDamp=-1.
 Damping current iteration by 5.00D-01
 RMSDP=8.86D-03 MaxDP=1.34D+00              OVMax= 2.27D-01

 Cycle   2  Pass 1  IDiag  1:
 E= -880.728253214025     Delta-E=       -0.107104431551 Rises=F Damp=T
 DIIS: error= 7.08D-03 at cycle   2 NSaved=   2.
 NSaved= 2 IEnMin= 2 EnMin= -880.728253214025     IErMin= 2 ErrMin= 7.08D-03
 ErrMax= 7.08D-03  0.00D+00 EMaxC= 1.00D-01 BMatC= 5.32D-02 BMatP= 4.02D-01
 IDIUse=3 WtCom= 9.29D-01 WtEn= 7.08D-02
 Coeff-Com:  0.115D+00 0.885D+00
 Coeff-En:   0.226D+00 0.774D+00
 Coeff:      0.122D+00 0.878D+00
 Gap=     0.292 Goal=   None    Shift=    0.000
 RMSDP=4.42D-03 MaxDP=8.33D-01 DE=-1.07D-01 OVMax= 1.56D-01

 Cycle   3  Pass 1  IDiag  1:
 E= -880.870801402038     Delta-E=       -0.142548188014 Rises=F Damp=F
 DIIS: error= 1.01D-02 at cycle   3 NSaved=   3.
 NSaved= 3 IEnMin= 3 EnMin= -880.870801402038     IErMin= 2 ErrMin= 7.08D-03
 ErrMax= 1.01D-02  0.00D+00 EMaxC= 1.00D-01 BMatC= 5.91D-02 BMatP= 5.32D-02
 IDIUse=2 WtCom= 0.00D+00 WtEn= 1.00D+00
 Coeff-En:   0.000D+00 0.000D+00 0.100D+01
 Coeff:      0.000D+00 0.000D+00 0.100D+01
 Gap=     0.228 Goal=   None    Shift=    0.000
 RMSDP=3.44D-03 MaxDP=3.41D-01 DE=-1.43D-01 OVMax= 2.33D-01

 Cycle   4  Pass 1  IDiag  1:
 E= -880.699212429424     Delta-E=        0.171588972614 Rises=F Damp=F
 DIIS: error= 2.55D-02 at cycle   4 NSaved=   4.
 NSaved= 4 IEnMin= 3 EnMin= -880.870801402038     IErMin= 2 ErrMin= 7.08D-03
 ErrMax= 2.55D-02  0.00D+00 EMaxC= 1.00D-01 BMatC= 2.92D-01 BMatP= 5.32D-02
 IDIUse=2 WtCom= 0.00D+00 WtEn= 1.00D+00
 Coeff-En:   0.000D+00 0.000D+00 0.779D+00 0.221D+00
 Coeff:      0.000D+00 0.000D+00 0.779D+00 0.221D+00
 Gap=     0.230 Goal=   None    Shift=    0.000
 RMSDP=1.92D-03 MaxDP=2.41D-01 DE= 1.72D-01 OVMax= 1.03D-01

 Cycle   5  Pass 1  IDiag  1:
 E= -880.900379138067     Delta-E=       -0.201166708643 Rises=F Damp=F
 DIIS: error= 5.84D-03 at cycle   5 NSaved=   5.
 NSaved= 5 IEnMin= 5 EnMin= -880.900379138067     IErMin= 5 ErrMin= 5.84D-03
 ErrMax= 5.84D-03  0.00D+00 EMaxC= 1.00D-01 BMatC= 1.97D-02 BMatP= 5.32D-02
 IDIUse=3 WtCom= 9.42D-01 WtEn= 5.84D-02
 Coeff-Com:  0.559D-02 0.522D-02 0.345D+00-0.156D-01 0.659D+00
 Coeff-En:   0.000D+00 0.000D+00 0.294D+00 0.000D+00 0.706D+00
 Coeff:      0.527D-02 0.491D-02 0.342D+00-0.147D-01 0.662D+00
 Gap=     0.247 Goal=   None    Shift=    0.000
 RMSDP=7.76D-04 MaxDP=1.11D-01 DE=-2.01D-01 OVMax= 2.64D-02

 Cycle   6  Pass 1  IDiag  1:
 E= -880.914663864182     Delta-E=       -0.014284726115 Rises=F Damp=F
 DIIS: error= 6.10D-04 at cycle   6 NSaved=   6.
 NSaved= 6 IEnMin= 6 EnMin= -880.914663864182     IErMin= 6 ErrMin= 6.10D-04
 ErrMax= 6.10D-04  0.00D+00 EMaxC= 1.00D-01 BMatC= 2.34D-04 BMatP= 1.97D-02
 IDIUse=3 WtCom= 9.94D-01 WtEn= 6.10D-03
 Coeff-Com: -0.106D-03 0.291D-02 0.138D+00-0.460D-01 0.420D+00 0.484D+00
 Coeff-En:   0.000D+00 0.000D+00 0.000D+00 0.000D+00 0.000D+00 0.100D+01
 Coeff:     -0.105D-03 0.289D-02 0.137D+00-0.457D-01 0.418D+00 0.488D+00
 Gap=     0.241 Goal=   None    Shift=    0.000
 RMSDP=1.33D-04 MaxDP=1.76D-02 DE=-1.43D-02 OVMax= 2.25D-03

 Cycle   7  Pass 1  IDiag  1:
 E= -880.914822971877     Delta-E=       -0.000159107695 Rises=F Damp=F
 DIIS: error= 9.83D-05 at cycle   7 NSaved=   7.
 NSaved= 7 IEnMin= 7 EnMin= -880.914822971877     IErMin= 7 ErrMin= 9.83D-05
 ErrMax= 9.83D-05  0.00D+00 EMaxC= 1.00D-01 BMatC= 1.12D-05 BMatP= 2.34D-04
 IDIUse=1 WtCom= 1.00D+00 WtEn= 0.00D+00
 Coeff-Com: -0.471D-03 0.116D-02 0.561D-01-0.265D-01 0.197D+00 0.259D+00
 Coeff-Com:  0.514D+00
 Coeff:     -0.471D-03 0.116D-02 0.561D-01-0.265D-01 0.197D+00 0.259D+00
 Coeff:      0.514D+00
 Gap=     0.241 Goal=   None    Shift=    0.000
 RMSDP=3.19D-05 MaxDP=3.66D-03 DE=-1.59D-04 OVMax= 3.68D-04

 Cycle   8  Pass 1  IDiag  1:
 E= -880.914830509390     Delta-E=       -0.000007537512 Rises=F Damp=F
 DIIS: error= 3.75D-05 at cycle   8 NSaved=   8.
 NSaved= 8 IEnMin= 8 EnMin= -880.914830509390     IErMin= 8 ErrMin= 3.75D-05
 ErrMax= 3.75D-05  0.00D+00 EMaxC= 1.00D-01 BMatC= 9.20D-07 BMatP= 1.12D-05
 IDIUse=1 WtCom= 1.00D+00 WtEn= 0.00D+00
 Coeff-Com:  0.774D-04-0.302D-03 0.699D-02-0.462D-02 0.263D-01 0.348D-01
 Coeff-Com:  0.228D+00 0.709D+00
 Coeff:      0.774D-04-0.302D-03 0.699D-02-0.462D-02 0.263D-01 0.348D-01
 Coeff:      0.228D+00 0.709D+00
 Gap=     0.241 Goal=   None    Shift=    0.000
 RMSDP=9.84D-06 MaxDP=1.93D-03 DE=-7.54D-06 OVMax= 1.72D-04

 Cycle   9  Pass 1  IDiag  1:
 E= -880.914831186551     Delta-E=       -0.000000677161 Rises=F Damp=F
 DIIS: error= 9.18D-06 at cycle   9 NSaved=   9.
 NSaved= 9 IEnMin= 9 EnMin= -880.914831186551     IErMin= 9 ErrMin= 9.18D-06
 ErrMax= 9.18D-06  0.00D+00 EMaxC= 1.00D-01 BMatC= 5.46D-08 BMatP= 9.20D-07
 IDIUse=1 WtCom= 1.00D+00 WtEn= 0.00D+00
 Coeff-Com:  0.727D-04-0.263D-03 0.102D-02-0.997D-03 0.391D-02 0.390D-02
 Coeff-Com:  0.855D-01 0.349D+00 0.558D+00
 Coeff:      0.727D-04-0.263D-03 0.102D-02-0.997D-03 0.391D-02 0.390D-02
 Coeff:      0.855D-01 0.349D+00 0.558D+00
 Gap=     0.241 Goal=   None    Shift=    0.000
 RMSDP=2.94D-06 MaxDP=3.73D-04 DE=-6.77D-07 OVMax= 3.32D-05

 Cycle  10  Pass 1  IDiag  1:
 E= -880.914831229443     Delta-E=       -0.000000042892 Rises=F Damp=F
 DIIS: error= 2.11D-06 at cycle  10 NSaved=  10.
 NSaved=10 IEnMin=10 EnMin= -880.914831229443     IErMin=10 ErrMin= 2.11D-06
 ErrMax= 2.11D-06  0.00D+00 EMaxC= 1.00D-01 BMatC= 3.99D-09 BMatP= 5.46D-08
 IDIUse=1 WtCom= 1.00D+00 WtEn= 0.00D+00
 Coeff-Com:  0.113D-04-0.511D-04-0.400D-03 0.348D-04-0.110D-02-0.220D-02
 Coeff-Com:  0.849D-02 0.619D-01 0.237D+00 0.696D+00
 Coeff:      0.113D-04-0.511D-04-0.400D-03 0.348D-04-0.110D-02-0.220D-02
 Coeff:      0.849D-02 0.619D-01 0.237D+00 0.696D+00
 Gap=     0.241 Goal=   None    Shift=    0.000
 RMSDP=6.19D-07 MaxDP=6.41D-05 DE=-4.29D-08 OVMax= 1.19D-05

 Cycle  11  Pass 1  IDiag  1:
 E= -880.914831232545     Delta-E=       -0.000000003103 Rises=F Damp=F
 DIIS: error= 7.19D-07 at cycle  11 NSaved=  11.
 NSaved=11 IEnMin=11 EnMin= -880.914831232545     IErMin=11 ErrMin= 7.19D-07
 ErrMax= 7.19D-07  0.00D+00 EMaxC= 1.00D-01 BMatC= 4.51D-10 BMatP= 3.99D-09
 IDIUse=1 WtCom= 1.00D+00 WtEn= 0.00D+00
 Coeff-Com: -0.980D-06-0.243D-05-0.319D-03 0.110D-03-0.962D-03-0.151D-02
 Coeff-Com: -0.278D-02 0.440D-02 0.728D-01 0.328D+00 0.600D+00
 Coeff:     -0.980D-06-0.243D-05-0.319D-03 0.110D-03-0.962D-03-0.151D-02
 Coeff:     -0.278D-02 0.440D-02 0.728D-01 0.328D+00 0.600D+00
 Gap=     0.241 Goal=   None    Shift=    0.000
 RMSDP=1.85D-07 MaxDP=2.23D-05 DE=-3.10D-09 OVMax= 4.54D-06

 Cycle  12  Pass 1  IDiag  1:
 E= -880.914831232913     Delta-E=       -0.000000000368 Rises=F Damp=F
 DIIS: error= 2.80D-07 at cycle  12 NSaved=  12.
 NSaved=12 IEnMin=12 EnMin= -880.914831232913     IErMin=12 ErrMin= 2.80D-07
 ErrMax= 2.80D-07  0.00D+00 EMaxC= 1.00D-01 BMatC= 5.33D-11 BMatP= 4.51D-10
 IDIUse=1 WtCom= 1.00D+00 WtEn= 0.00D+00
 Coeff-Com: -0.351D-05 0.801D-05-0.104D-03 0.378D-04-0.288D-03-0.394D-03
 Coeff-Com: -0.222D-02-0.474D-02 0.770D-02 0.755D-01 0.292D+00 0.633D+00
 Coeff:     -0.351D-05 0.801D-05-0.104D-03 0.378D-04-0.288D-03-0.394D-03
 Coeff:     -0.222D-02-0.474D-02 0.770D-02 0.755D-01 0.292D+00 0.633D+00
 Gap=     0.241 Goal=   None    Shift=    0.000
 RMSDP=7.13D-08 MaxDP=7.86D-06 DE=-3.68D-10 OVMax= 1.29D-06

 Cycle  13  Pass 1  IDiag  1:
 E= -880.914831232931     Delta-E=       -0.000000000018 Rises=F Damp=F
 DIIS: error= 4.27D-08 at cycle  13 NSaved=  13.
 NSaved=13 IEnMin=13 EnMin= -880.914831232931     IErMin=13 ErrMin= 4.27D-08
 ErrMax= 4.27D-08  0.00D+00 EMaxC= 1.00D-01 BMatC= 2.67D-12 BMatP= 5.33D-11
 IDIUse=1 WtCom= 1.00D+00 WtEn= 0.00D+00
 Coeff-Com: -0.121D-05 0.306D-05-0.875D-05 0.436D-05-0.182D-04-0.141D-04
 Coeff-Com: -0.522D-03-0.200D-02-0.343D-02-0.177D-02 0.554D-01 0.237D+00
 Coeff-Com:  0.715D+00
 Coeff:     -0.121D-05 0.306D-05-0.875D-05 0.436D-05-0.182D-04-0.141D-04
 Coeff:     -0.522D-03-0.200D-02-0.343D-02-0.177D-02 0.554D-01 0.237D+00
 Coeff:      0.715D+00
 Gap=     0.241 Goal=   None    Shift=    0.000
 RMSDP=1.84D-08 MaxDP=1.75D-06 DE=-1.82D-11 OVMax= 5.13D-07

 Cycle  14  Pass 1  IDiag  1:
 E= -880.914831232943     Delta-E=       -0.000000000012 Rises=F Damp=F
 DIIS: error= 1.67D-08 at cycle  14 NSaved=  14.
 NSaved=14 IEnMin=14 EnMin= -880.914831232943     IErMin=14 ErrMin= 1.67D-08
 ErrMax= 1.67D-08  0.00D+00 EMaxC= 1.00D-01 BMatC= 4.61D-13 BMatP= 2.67D-12
 IDIUse=1 WtCom= 1.00D+00 WtEn= 0.00D+00
 Coeff-Com: -0.237D-06 0.719D-06 0.415D-05-0.888D-06 0.129D-04 0.179D-04
 Coeff-Com: -0.451D-04-0.545D-03-0.243D-02-0.868D-02-0.353D-02 0.490D-01
 Coeff-Com:  0.342D+00 0.624D+00
 Coeff:     -0.237D-06 0.719D-06 0.415D-05-0.888D-06 0.129D-04 0.179D-04
 Coeff:     -0.451D-04-0.545D-03-0.243D-02-0.868D-02-0.353D-02 0.490D-01
 Coeff:      0.342D+00 0.624D+00
 Gap=     0.241 Goal=   None    Shift=    0.000
 RMSDP=1.26D-08 MaxDP=1.62D-06 DE=-1.18D-11 OVMax= 1.22D-07

 Cycle  15  Pass 1  IDiag  1:
 E= -880.914831232903     Delta-E=        0.000000000040 Rises=F Damp=F
 DIIS: error= 4.91D-09 at cycle  15 NSaved=  15.
 NSaved=15 IEnMin=14 EnMin= -880.914831232943     IErMin=15 ErrMin= 4.91D-09
 ErrMax= 4.91D-09  0.00D+00 EMaxC= 1.00D-01 BMatC= 2.67D-14 BMatP= 4.61D-13
 IDIUse=1 WtCom= 1.00D+00 WtEn= 0.00D+00
 Coeff-Com: -0.608D-08 0.103D-06 0.210D-05-0.593D-06 0.574D-05 0.568D-05
 Coeff-Com:  0.152D-04-0.100D-03-0.739D-03-0.333D-02-0.439D-02 0.728D-02
 Coeff-Com:  0.968D-01 0.256D+00 0.648D+00
 Coeff:     -0.608D-08 0.103D-06 0.210D-05-0.593D-06 0.574D-05 0.568D-05
 Coeff:      0.152D-04-0.100D-03-0.739D-03-0.333D-02-0.439D-02 0.728D-02
 Coeff:      0.968D-01 0.256D+00 0.648D+00
 Gap=     0.241 Goal=   None    Shift=    0.000
 RMSDP=8.20D-09 MaxDP=1.59D-06 DE= 4.00D-11 OVMax= 3.08D-08

 Cycle  16  Pass 1  IDiag  1:
 E= -880.914831232908     Delta-E=       -0.000000000005 Rises=F Damp=F
 DIIS: error= 1.81D-09 at cycle  16 NSaved=  16.
 NSaved=16 IEnMin=14 EnMin= -880.914831232943     IErMin=16 ErrMin= 1.81D-09
 ErrMax= 1.81D-09  0.00D+00 EMaxC= 1.00D-01 BMatC= 4.30D-15 BMatP= 2.67D-14
 IDIUse=1 WtCom= 1.00D+00 WtEn= 0.00D+00
 Coeff-Com:  0.320D-07-0.423D-07 0.875D-06-0.307D-06 0.227D-05 0.145D-05
 Coeff-Com:  0.161D-04 0.102D-04-0.107D-03-0.769D-03-0.198D-02-0.174D-02
 Coeff-Com:  0.113D-01 0.638D-01 0.336D+00 0.593D+00
 Coeff:      0.320D-07-0.423D-07 0.875D-06-0.307D-06 0.227D-05 0.145D-05
 Coeff:      0.161D-04 0.102D-04-0.107D-03-0.769D-03-0.198D-02-0.174D-02
 Coeff:      0.113D-01 0.638D-01 0.336D+00 0.593D+00
 Gap=     0.241 Goal=   None    Shift=    0.000
 RMSDP=5.03D-09 MaxDP=1.23D-06 DE=-4.55D-12 OVMax= 1.05D-08

 Cycle  17  Pass 1  IDiag  1:
 E= -880.914831232941     Delta-E=       -0.000000000033 Rises=F Damp=F
 DIIS: error= 6.29D-10 at cycle  17 NSaved=  17.
 NSaved=17 IEnMin=14 EnMin= -880.914831232943     IErMin=17 ErrMin= 6.29D-10
 ErrMax= 6.29D-10  0.00D+00 EMaxC= 1.00D-01 BMatC= 3.22D-16 BMatP= 4.30D-15
 IDIUse=1 WtCom= 1.00D+00 WtEn= 0.00D+00
 Large coefficients: NSaved= 17 BigCof=    0.00 CofMax=   10.00 Det=-3.05D-15
 Inversion failed.  Reducing to 16 matrices.
 Large coefficients: NSaved= 16 BigCof=    0.00 CofMax=   10.00 Det=-3.36D-15
 Inversion failed.  Reducing to 15 matrices.
 Coeff-Com:  0.148D-08 0.138D-07-0.242D-07-0.495D-06-0.805D-06-0.968D-05
 Coeff-Com: -0.192D-05 0.229D-04 0.174D-04-0.354D-05-0.201D-02 0.266D-02
 Coeff-Com:  0.644D-01 0.238D+00 0.697D+00
 Coeff:      0.148D-08 0.138D-07-0.242D-07-0.495D-06-0.805D-06-0.968D-05
 Coeff:     -0.192D-05 0.229D-04 0.174D-04-0.354D-05-0.201D-02 0.266D-02
 Coeff:      0.644D-01 0.238D+00 0.697D+00
 Gap=     0.241 Goal=   None    Shift=    0.000
 RMSDP=7.03D-09 MaxDP=1.54D-06 DE=-3.27D-11 OVMax= 2.93D-09

 Cycle  18  Pass 1  IDiag  1:
 E= -880.914831232942     Delta-E=       -0.000000000001 Rises=F Damp=F
 DIIS: error= 2.87D-10 at cycle  18 NSaved=  16.
 NSaved=16 IEnMin=12 EnMin= -880.914831232943     IErMin=16 ErrMin= 2.87D-10
 ErrMax= 2.87D-10  0.00D+00 EMaxC= 1.00D-01 BMatC= 7.10D-17 BMatP= 3.22D-16
 IDIUse=1 WtCom= 1.00D+00 WtEn= 0.00D+00
 Large coefficients: NSaved= 16 BigCof=    0.00 CofMax=   10.00 Det=-4.33D-16
 Inversion failed.  Reducing to 15 matrices.
 Coeff-Com: -0.130D-07-0.649D-07-0.242D-06 0.416D-06 0.237D-05 0.198D-04
 Coeff-Com:  0.814D-04 0.398D-04-0.385D-03-0.357D-02-0.618D-02-0.184D-03
 Coeff-Com:  0.641D-01 0.368D+00 0.578D+00
 Coeff:     -0.130D-07-0.649D-07-0.242D-06 0.416D-06 0.237D-05 0.198D-04
 Coeff:      0.814D-04 0.398D-04-0.385D-03-0.357D-02-0.618D-02-0.184D-03
 Coeff:      0.641D-01 0.368D+00 0.578D+00
 Gap=     0.241 Goal=   None    Shift=    0.000
 RMSDP=4.55D-09 MaxDP=8.99D-07 DE=-1.36D-12 OVMax= 1.22D-09

 SCF Done:  E(RPBE1PBE) =  -880.914831233     A.U. after   18 cycles
            NFock= 18  Conv=0.46D-08     -V/T= 2.0044
 KE= 8.770979335551D+02 PE=-4.925143963678D+03 EE= 1.726330613921D+03
 Leave Link  502 at Tue Jan 10 01:54:22 2017, MaxMem= 13421772800 cpu:      1231.9
 (Enter /share/apps//g09/l601.exe)
 Copying SCF densities to generalized density rwf, IOpCl= 0 IROHF=0.

 **********************************************************************

            Population analysis using the SCF density.

 **********************************************************************

 Orbital symmetries:
       Occupied  (A) (A) (A) (A) (A) (A) (A) (A) (A) (A) (A) (A)
                 (A) (A) (A) (A) (A) (A) (A) (A) (A) (A) (A) (A)
                 (A) (A) (A) (A) (A) (A) (A) (A) (A) (A) (A) (A)
                 (A) (A) (A) (A) (A) (A) (A) (A) (A) (A) (A) (A)
                 (A) (A) (A) (A) (A) (A) (A) (A) (A) (A) (A) (A)
                 (A) (A) (A) (A) (A) (A)
       Virtual   (A) (A) (A) (A) (A) (A) (A) (A) (A) (A) (A) (A)
                 (A) (A) (A) (A) (A) (A) (A) (A) (A) (A) (A) (A)
                 (A) (A) (A) (A) (A) (A) (A) (A) (A) (A) (A) (A)
                 (A) (A) (A) (A) (A) (A) (A) (A) (A) (A) (A) (A)
                 (A) (A) (A) (A) (A) (A) (A) (A) (A) (A) (A) (A)
                 (A) (A) (A) (A) (A) (A) (A) (A) (A) (A) (A) (A)
                 (A) (A) (A) (A) (A) (A) (A) (A) (A) (A) (A) (A)
                 (A) (A) (A) (A) (A) (A) (A) (A) (A) (A) (A) (A)
                 (A) (A) (A) (A) (A) (A) (A) (A) (A) (A) (A) (A)
                 (A) (A) (A) (A) (A) (A) (A) (A) (A) (A) (A) (A)
                 (A) (A) (A) (A) (A) (A) (A) (A) (A) (A) (A) (A)
                 (A) (A) (A) (A) (A) (A) (A) (A) (A) (A) (A) (A)
                 (A) (A) (A) (A) (A) (A) (A) (A) (A) (A) (A) (A)
                 (A) (A) (A) (A) (A) (A) (A) (A) (A) (A) (A) (A)
                 (A) (A) (A) (A) (A) (A) (A) (A) (A) (A) (A) (A)
                 (A) (A) (A) (A) (A) (A) (A) (A) (A) (A) (A) (A)
                 (A) (A) (A) (A) (A) (A) (A) (A) (A) (A) (A) (A)
                 (A) (A) (A) (A) (A) (A) (A) (A) (A) (A) (A) (A)
                 (A) (A) (A) (A) (A) (A) (A) (A) (A) (A) (A) (A)
                 (A) (A) (A) (A) (A) (A) (A) (A) (A) (A) (A) (A)
                 (A) (A) (A) (A) (A) (A) (A) (A) (A) (A) (A) (A)
                 (A) (A) (A) (A) (A) (A) (A) (A) (A) (A) (A) (A)
                 (A) (A) (A) (A) (A) (A) (A) (A) (A) (A) (A) (A)
                 (A) (A) (A) (A) (A) (A) (A) (A) (A) (A) (A) (A)
                 (A) (A) (A) (A) (A) (A) (A) (A) (A) (A) (A) (A)
                 (A) (A) (A) (A) (A) (A) (A) (A) (A) (A) (A) (A)
                 (A) (A) (A) (A) (A) (A) (A) (A) (A) (A) (A) (A)
                 (A) (A) (A) (A) (A) (A) (A) (A) (A) (A) (A) (A)
                 (A) (A) (A) (A) (A) (A) (A) (A) (A) (A) (A) (A)
                 (A) (A) (A) (A) (A) (A) (A) (A) (A) (A) (A) (A)
                 (A) (A) (A) (A) (A) (A) (A) (A) (A) (A) (A) (A)
                 (A) (A) (A) (A) (A) (A) (A) (A) (A) (A) (A) (A)
                 (A) (A) (A) (A) (A) (A) (A) (A) (A) (A) (A) (A)
                 (A) (A) (A) (A) (A) (A) (A) (A) (A) (A) (A) (A)
                 (A) (A) (A) (A) (A) (A) (A) (A) (A) (A) (A) (A)
                 (A) (A)
 The electronic state is 1-A.
 Alpha  occ. eigenvalues --  -19.48282 -19.41704 -19.37644 -19.35648 -19.34664
 Alpha  occ. eigenvalues --  -19.31287 -10.52424 -10.47505 -10.46220 -10.45973
 Alpha  occ. eigenvalues --  -10.45666 -10.44089 -10.43371 -10.42336 -10.38760
 Alpha  occ. eigenvalues --  -10.38435 -10.33559  -1.33185  -1.26425  -1.25599
 Alpha  occ. eigenvalues --   -1.21251  -1.19844  -1.16987  -0.99718  -0.97097
 Alpha  occ. eigenvalues --   -0.93513  -0.89110  -0.86892  -0.85185  -0.83280
 Alpha  occ. eigenvalues --   -0.81247  -0.80744  -0.75515  -0.73685  -0.71986
 Alpha  occ. eigenvalues --   -0.69757  -0.67764  -0.66513  -0.66250  -0.65052
 Alpha  occ. eigenvalues --   -0.64530  -0.63104  -0.62134  -0.61658  -0.60993
 Alpha  occ. eigenvalues --   -0.59816  -0.59365  -0.58672  -0.58231  -0.57390
 Alpha  occ. eigenvalues --   -0.56027  -0.55140  -0.55019  -0.52996  -0.52252
 Alpha  occ. eigenvalues --   -0.52158  -0.51898  -0.50822  -0.49425  -0.48533
 Alpha  occ. eigenvalues --   -0.47581  -0.46581  -0.44175  -0.43421  -0.41142
 Alpha  occ. eigenvalues --   -0.39815
 Alpha virt. eigenvalues --   -0.15745  -0.12529  -0.11465  -0.11144  -0.10159
 Alpha virt. eigenvalues --   -0.09350  -0.08936  -0.07727  -0.07422  -0.06918
 Alpha virt. eigenvalues --   -0.06615  -0.05743  -0.05477  -0.04864  -0.04501
 Alpha virt. eigenvalues --   -0.03978  -0.03749  -0.03564  -0.02741  -0.02467
 Alpha virt. eigenvalues --   -0.02163  -0.01682  -0.01405  -0.01200  -0.00891
 Alpha virt. eigenvalues --   -0.00602   0.00698   0.00944   0.01228   0.01609
 Alpha virt. eigenvalues --    0.01896   0.02545   0.02932   0.03069   0.03513
 Alpha virt. eigenvalues --    0.03578   0.03741   0.04071   0.04370   0.04890
 Alpha virt. eigenvalues --    0.05279   0.05905   0.06114   0.06394   0.07091
 Alpha virt. eigenvalues --    0.07394   0.07739   0.08240   0.08470   0.08817
 Alpha virt. eigenvalues --    0.09263   0.09559   0.09975   0.10157   0.10541
 Alpha virt. eigenvalues --    0.10729   0.11276   0.11725   0.11833   0.12009
 Alpha virt. eigenvalues --    0.12508   0.12655   0.13216   0.13578   0.13870
 Alpha virt. eigenvalues --    0.14468   0.15154   0.15715   0.16004   0.16625
 Alpha virt. eigenvalues --    0.17095   0.17420   0.17650   0.17796   0.18515
 Alpha virt. eigenvalues --    0.18967   0.19642   0.20043   0.20377   0.21126
 Alpha virt. eigenvalues --    0.22029   0.22347   0.22832   0.23381   0.24132
 Alpha virt. eigenvalues --    0.24881   0.25155   0.25696   0.25840   0.26237
 Alpha virt. eigenvalues --    0.26702   0.27248   0.27755   0.28306   0.28524
 Alpha virt. eigenvalues --    0.28923   0.29189   0.30664   0.31173   0.31807
 Alpha virt. eigenvalues --    0.32843   0.33491   0.33766   0.33918   0.34944
 Alpha virt. eigenvalues --    0.36477   0.36807   0.37044   0.38567   0.38839
 Alpha virt. eigenvalues --    0.39504   0.40417   0.40605   0.41186   0.42646
 Alpha virt. eigenvalues --    0.43593   0.43723   0.44817   0.45132   0.45839
 Alpha virt. eigenvalues --    0.47091   0.47740   0.47802   0.48604   0.49299
 Alpha virt. eigenvalues --    0.50458   0.51314   0.52162   0.52988   0.53614
 Alpha virt. eigenvalues --    0.54519   0.54738   0.55397   0.55844   0.56143
 Alpha virt. eigenvalues --    0.56587   0.57245   0.57388   0.57594   0.58704
 Alpha virt. eigenvalues --    0.59047   0.60166   0.60600   0.60834   0.61668
 Alpha virt. eigenvalues --    0.62544   0.63124   0.63960   0.64630   0.65410
 Alpha virt. eigenvalues --    0.66112   0.66523   0.68414   0.69282   0.71064
 Alpha virt. eigenvalues --    0.74225   0.75782   0.76287   0.77469   0.80407
 Alpha virt. eigenvalues --    0.81669   0.84264   0.86235   0.86877   0.88427
 Alpha virt. eigenvalues --    0.89970   0.91831   0.93725   0.94193   0.96139
 Alpha virt. eigenvalues --    0.97103   0.97963   0.99977   1.00801   1.01787
 Alpha virt. eigenvalues --    1.02861   1.04758   1.05256   1.07413   1.08086
 Alpha virt. eigenvalues --    1.10785   1.11474   1.11843   1.12758   1.14216
 Alpha virt. eigenvalues --    1.14587   1.16145   1.16307   1.18391   1.19738
 Alpha virt. eigenvalues --    1.21502   1.22763   1.23245   1.24182   1.25772
 Alpha virt. eigenvalues --    1.26548   1.27192   1.28343   1.29621   1.30182
 Alpha virt. eigenvalues --    1.31360   1.34287   1.34588   1.34813   1.35232
 Alpha virt. eigenvalues --    1.35918   1.36492   1.37750   1.38487   1.39638
 Alpha virt. eigenvalues --    1.41314   1.41758   1.42626   1.43232   1.44698
 Alpha virt. eigenvalues --    1.45589   1.46116   1.46428   1.47052   1.47436
 Alpha virt. eigenvalues --    1.48008   1.48444   1.49673   1.49889   1.51303
 Alpha virt. eigenvalues --    1.51638   1.52090   1.53080   1.54032   1.55949
 Alpha virt. eigenvalues --    1.56649   1.57015   1.57654   1.58336   1.59475
 Alpha virt. eigenvalues --    1.59833   1.61584   1.61847   1.63300   1.64103
 Alpha virt. eigenvalues --    1.64545   1.66013   1.66991   1.68449   1.69678
 Alpha virt. eigenvalues --    1.71394   1.71482   1.72924   1.73851   1.75272
 Alpha virt. eigenvalues --    1.75709   1.77021   1.77746   1.79293   1.80659
 Alpha virt. eigenvalues --    1.82625   1.83215   1.86063   1.87802   1.88334
 Alpha virt. eigenvalues --    1.89078   1.91293   1.92992   1.93547   1.95050
 Alpha virt. eigenvalues --    1.97138   1.98246   1.99518   2.00677   2.01331
 Alpha virt. eigenvalues --    2.02114   2.03479   2.05166   2.06442   2.06985
 Alpha virt. eigenvalues --    2.07570   2.09626   2.13704   2.14354   2.14646
 Alpha virt. eigenvalues --    2.16156   2.18565   2.19750   2.20716   2.26792
 Alpha virt. eigenvalues --    2.27438   2.30273   2.33005   2.33953   2.35821
 Alpha virt. eigenvalues --    2.36022   2.36592   2.37757   2.39299   2.40126
 Alpha virt. eigenvalues --    2.41141   2.41973   2.43182   2.43628   2.44149
 Alpha virt. eigenvalues --    2.45135   2.46226   2.46539   2.47785   2.48121
 Alpha virt. eigenvalues --    2.48532   2.49510   2.51740   2.52749   2.55545
 Alpha virt. eigenvalues --    2.56544   2.57249   2.58185   2.59850   2.61482
 Alpha virt. eigenvalues --    2.63929   2.65248   2.66571   2.70057   2.71416
 Alpha virt. eigenvalues --    2.71964   2.73416   2.74742   2.76412   2.78974
 Alpha virt. eigenvalues --    2.80574   2.81275   2.82040   2.83250   2.84271
 Alpha virt. eigenvalues --    2.85924   2.88302   2.89381   2.90223   2.91710
 Alpha virt. eigenvalues --    2.93141   2.95219   2.95618   2.97985   2.99361
 Alpha virt. eigenvalues --    3.00772   3.02449   3.03003   3.04249   3.06839
 Alpha virt. eigenvalues --    3.07373   3.09108   3.09998   3.11686   3.12667
 Alpha virt. eigenvalues --    3.13209   3.15133   3.16619   3.19834   3.20706
 Alpha virt. eigenvalues --    3.26690   3.28523   3.30120   3.37190   3.48632
 Alpha virt. eigenvalues --    3.56910   3.58881   3.61681   3.66598   3.67565
 Alpha virt. eigenvalues --    3.68395   3.68725   3.70182   3.70812   3.72133
 Alpha virt. eigenvalues --    3.77028   3.80134   3.82148   3.83421   3.87559
 Alpha virt. eigenvalues --    3.90971   3.92427   3.95480   3.97418   4.01123
 Alpha virt. eigenvalues --    4.02766   4.05067   4.07141   4.09348   4.13494
 Alpha virt. eigenvalues --    4.17274   4.26981   4.99074   5.03827   5.03995
 Alpha virt. eigenvalues --    5.04632   5.05235   5.11625   5.17671   5.20339
 Alpha virt. eigenvalues --    5.28394   5.30824   5.32600   5.37665   5.40000
 Alpha virt. eigenvalues --    5.51052   5.56252   5.58048   5.64109   5.79613
 Alpha virt. eigenvalues --   23.68669  23.74812  23.76828  23.81131  23.81996
 Alpha virt. eigenvalues --   23.83816  23.85798  23.88936  23.90740  23.91960
 Alpha virt. eigenvalues --   23.94635  49.90417  49.91625  49.94411  49.97672
 Alpha virt. eigenvalues --   50.00521  50.02230
          Condensed to atoms (all electrons):
               1          2          3          4          5          6
     1  C    8.263393  -2.944388   1.481869  -1.149601   0.030262  -0.143956
     2  C   -2.944388  16.704842  -6.304069  -0.170073   1.934603  -1.208725
     3  C    1.481869  -6.304069  16.615279  -5.138906  -0.547758  -0.670517
     4  C   -1.149601  -0.170073  -5.138906  20.388978 -10.106260   1.679631
     5  C    0.030262   1.934603  -0.547758 -10.106260  22.445251  -6.260511
     6  C   -0.143956  -1.208725  -0.670517   1.679631  -6.260511  13.209776
     7  O    0.036332   0.134068   0.017649  -0.086739  -0.044184   0.272151
     8  O    0.146801  -0.270595   0.218208  -0.065348  -0.037210  -0.099968
     9  O    0.089585  -0.394675   0.336909  -0.125370  -0.050102  -0.040594
    10  O   -0.292769  -0.260894   0.356763   0.137011  -0.041376  -0.342306
    11  H    0.371495  -0.033617  -0.014838   0.020954   0.043758  -0.014129
    12  H    0.451854  -0.018249  -0.024003  -0.015665   0.012504  -0.003773
    13  H   -0.000728   0.344403   0.027097  -0.019694   0.047909  -0.034704
    14  H    0.003151  -0.057071   0.451791  -0.106196   0.036459   0.005575
    15  H    0.015949   0.012741   0.040001   0.424363  -0.182494   0.012317
    16  H    0.019397  -0.065624   0.039285  -0.100229   0.329114   0.043274
    17  H    0.039077  -0.015045   0.035512  -0.054555   0.037860   0.327127
    18  O    0.020656  -0.050972  -0.021859  -0.037594   0.399598  -0.259916
    19  C   -0.263661   0.032075  -0.031819   0.150831  -0.072778  -0.145293
    20  H    0.030498  -0.011775   0.001946  -0.015276   0.012445  -0.002450
    21  H   -0.012097   0.020171  -0.013855  -0.000184   0.011519  -0.019213
    22  H    0.001496  -0.001856   0.004927  -0.002165  -0.016031   0.037656
    23  C   -0.000584   0.053467  -0.025969   0.192536  -0.494548   0.022474
    24  H    0.000921  -0.002239  -0.012439  -0.001192  -0.058318   0.050813
    25  H   -0.000791  -0.004923   0.042478   0.070569  -0.073867  -0.022666
    26  H    0.000287   0.000408  -0.002879  -0.005754   0.043254  -0.004638
    27  C    0.017574  -0.092759   0.050185  -0.377168   0.010400  -0.028121
    28  H    0.001930  -0.009258   0.023187  -0.029860  -0.038880  -0.007075
    29  H   -0.001402   0.005927  -0.033035  -0.063845   0.083450   0.021260
    30  H    0.000962   0.002473  -0.003731   0.058226  -0.020662   0.001174
    31  C    0.157195  -0.620698  -0.422507   0.668879  -0.745256   0.151505
    32  O    0.001490  -0.014691   0.128751  -0.088899   0.022426  -0.020214
    33  C    0.002659  -0.160921   0.133770  -0.096230  -0.123331   0.014055
    34  H   -0.000633   0.000722  -0.033034   0.010238  -0.001199   0.000072
    35  H    0.000684  -0.005098   0.029671  -0.009258   0.004420  -0.000659
    36  H    0.000114   0.001825  -0.002290  -0.000343  -0.000562  -0.000015
               7          8          9         10         11         12
     1  C    0.036332   0.146801   0.089585  -0.292769   0.371495   0.451854
     2  C    0.134068  -0.270595  -0.394675  -0.260894  -0.033617  -0.018249
     3  C    0.017649   0.218208   0.336909   0.356763  -0.014838  -0.024003
     4  C   -0.086739  -0.065348  -0.125370   0.137011   0.020954  -0.015665
     5  C   -0.044184  -0.037210  -0.050102  -0.041376   0.043758   0.012504
     6  C    0.272151  -0.099968  -0.040594  -0.342306  -0.014129  -0.003773
     7  O    7.625623   0.019321   0.008435  -0.078658   0.005392  -0.001343
     8  O    0.019321   8.039623   0.020697  -0.013597  -0.008996   0.002117
     9  O    0.008435   0.020697   8.402319   0.007188   0.001437  -0.000741
    10  O   -0.078658  -0.013597   0.007188   8.529702  -0.009211  -0.061316
    11  H    0.005392  -0.008996   0.001437  -0.009211   0.371788  -0.021060
    12  H   -0.001343   0.002117  -0.000741  -0.061316  -0.021060   0.427791
    13  H   -0.040114   0.000621  -0.002350   0.009162   0.002647  -0.005983
    14  H    0.008177   0.011942  -0.030702  -0.003184   0.000422  -0.000016
    15  H   -0.000108  -0.043932   0.004667   0.000787  -0.000457   0.000026
    16  H    0.009331   0.010316   0.000920   0.006625  -0.000289   0.000004
    17  H   -0.047705   0.001373   0.000446  -0.031676  -0.000152  -0.000168
    18  O    0.028339   0.016485   0.002771   0.001850  -0.000111   0.000128
    19  C   -0.002891  -0.015565  -0.001482   0.074370   0.000568  -0.000754
    20  H   -0.000395   0.000264   0.000037  -0.036852  -0.000211   0.000242
    21  H    0.005504   0.000055  -0.000001  -0.052959  -0.000059   0.003483
    22  H   -0.001965  -0.000070   0.000071  -0.042584  -0.000039  -0.000391
    23  C    0.001495   0.004526  -0.001027  -0.019409   0.000044   0.000112
    24  H    0.000514   0.001477   0.000014  -0.000373  -0.000003  -0.000000
    25  H   -0.000478  -0.003862   0.000022   0.000501   0.000000   0.000000
    26  H   -0.000105   0.000105   0.000007   0.000086  -0.000000   0.000000
    27  C    0.000748   0.149347  -0.001719   0.002698  -0.003968  -0.000295
    28  H   -0.000055  -0.044072   0.000746  -0.000110  -0.000097   0.000001
    29  H    0.000021  -0.042523  -0.000031   0.001154  -0.000010   0.000003
    30  H    0.000045  -0.066479  -0.000733  -0.000653  -0.000151  -0.000004
    31  C    0.007914   0.016538   0.069181   0.000466  -0.010159  -0.001563
    32  O    0.000679   0.002083  -0.199169  -0.000232  -0.000000  -0.000008
    33  C   -0.001758  -0.010585  -0.295428   0.001970  -0.004511  -0.000216
    34  H   -0.000001   0.000087  -0.004304   0.000001   0.000029   0.000000
    35  H    0.000008  -0.000874  -0.001014   0.000031  -0.000044   0.000002
    36  H   -0.000001   0.000009   0.015971   0.000000   0.000002  -0.000000
              13         14         15         16         17         18
     1  C   -0.000728   0.003151   0.015949   0.019397   0.039077   0.020656
     2  C    0.344403  -0.057071   0.012741  -0.065624  -0.015045  -0.050972
     3  C    0.027097   0.451791   0.040001   0.039285   0.035512  -0.021859
     4  C   -0.019694  -0.106196   0.424363  -0.100229  -0.054555  -0.037594
     5  C    0.047909   0.036459  -0.182494   0.329114   0.037860   0.399598
     6  C   -0.034704   0.005575   0.012317   0.043274   0.327127  -0.259916
     7  O   -0.040114   0.008177  -0.000108   0.009331  -0.047705   0.028339
     8  O    0.000621   0.011942  -0.043932   0.010316   0.001373   0.016485
     9  O   -0.002350  -0.030702   0.004667   0.000920   0.000446   0.002771
    10  O    0.009162  -0.003184   0.000787   0.006625  -0.031676   0.001850
    11  H    0.002647   0.000422  -0.000457  -0.000289  -0.000152  -0.000111
    12  H   -0.005983  -0.000016   0.000026   0.000004  -0.000168   0.000128
    13  H    0.401852  -0.003169  -0.000012   0.000085   0.000253   0.000223
    14  H   -0.003169   0.417026  -0.003594  -0.000205  -0.000269   0.003512
    15  H   -0.000012  -0.003594   0.436890  -0.001979  -0.000087   0.011958
    16  H    0.000085  -0.000205  -0.001979   0.494749  -0.000757  -0.039573
    17  H    0.000253  -0.000269  -0.000087  -0.000757   0.420191   0.012737
    18  O    0.000223   0.003512   0.011958  -0.039573   0.012737   7.871061
    19  C   -0.002708  -0.000718  -0.000566   0.000897  -0.007878  -0.005739
    20  H    0.000020  -0.000001   0.000011  -0.000116  -0.000441  -0.000101
    21  H   -0.000040   0.000013   0.000002  -0.000055   0.001732   0.000109
    22  H    0.000015  -0.000002   0.000001   0.000044   0.000275   0.000116
    23  C   -0.000111  -0.001056   0.008168   0.002257   0.000235   0.156849
    24  H   -0.000000   0.000023   0.000476   0.013985  -0.000487  -0.039702
    25  H   -0.000001  -0.000325  -0.000272  -0.004309   0.000126  -0.031188
    26  H   -0.000000  -0.000010  -0.000019   0.000025  -0.000035  -0.062151
    27  C    0.000466   0.000811  -0.007686   0.011475   0.000499  -0.004941
    28  H    0.000005  -0.000268   0.013914   0.000329  -0.000003   0.000703
    29  H   -0.000003   0.000078  -0.004326   0.001531   0.000025  -0.001470
    30  H   -0.000002   0.000011  -0.000138  -0.000227  -0.000003   0.000145
    31  C    0.001873  -0.000117   0.010631   0.006465  -0.000168   0.002503
    32  O   -0.000109  -0.002029  -0.002614  -0.000082   0.000031  -0.002197
    33  C   -0.001440  -0.011461   0.002327   0.000479  -0.000021  -0.002837
    34  H   -0.000002   0.000090  -0.000034  -0.000000  -0.000000  -0.000001
[...]
 0.00001713,0.00003576,-0.00000454,0.00002434,0.00001818,0.00004584,-0.
 00001635,0.00097326,-0.00002375,-0.00048220,-0.00006547,-0.00006101,0.
 00009729,0.00005263,-0.00006912,0.00008214,-0.00004454,0.00008563,0.00
 003292,0.00217372,0.00182414,-0.00160301,0.00000800,0.00012626,-0.0002
 9233,-0.00038427,-0.00009351,0.00034277,-0.00000714,-0.00019339,0.0002
 2843,-0.09166940,0.21777796,0.40278047,0.00024159,0.00044631,0.0015052
 7,0.00260193,0.00145904,0.00142810,-0.00313746,0.01597814,0.01413931,-
 0.00259004,-0.00241526,-0.00009671,0.00090845,0.00171535,-0.00094014,-
 0.00118991,-0.00031899,0.00216830,-0.00066248,-0.00191531,-0.00330509,
 0.00273353,0.00100850,-0.00121448,-0.11639252,-0.00981792,-0.02934423,
 -0.00016609,-0.00026281,-0.00162486,0.00039017,-0.00041467,0.00075600,
 -0.00004165,-0.00011180,-0.00021365,0.00068657,0.00049945,-0.00017663,
 -0.00054423,-0.00293455,-0.00171042,0.00052890,-0.00056684,-0.00299129
 ,-0.00003904,-0.00046752,-0.00046375,0.00021549,0.00010721,-0.00023245
 ,0.00165876,-0.00055385,-0.00020060,0.00070739,-0.00003964,0.00043523,
 -0.00007238,-0.00004110,-0.00005550,-0.00002594,0.00003237,0.00000701,
 -0.00002659,-0.00004051,0.00006538,-0.00131475,-0.00036439,0.00018553,
 0.00017705,0.00010258,0.00002182,0.00015504,0.00020194,-0.00019488,0.0
 0008335,-0.00006807,-0.00005883,-0.00267211,-0.00155918,-0.00017665,0.
 00061717,0.00051747,-0.00027676,0.00048674,0.00014067,0.00001477,0.000
 27818,0.00016260,0.00013984,-0.63089062,0.24650614,0.12585898,0.762660
 25,-0.00068608,-0.00050096,-0.00034290,-0.00093118,0.00217291,0.000115
 79,0.00055916,-0.00337353,0.00148124,0.00080984,-0.00095654,0.00020122
 ,-0.00065555,-0.00015083,0.00068663,0.00051588,-0.00041036,-0.00017469
 ,0.00039561,0.00069191,0.00046684,-0.00017119,0.00141287,-0.00035501,-
 0.00418905,0.03094327,0.00299353,-0.00036849,0.00025888,-0.00003569,0.
 00003439,-0.00014248,-0.00010800,-0.00011782,0.00007443,-0.00018020,-0
 .00019969,-0.00018890,-0.00009304,0.00039147,0.00182256,-0.00000518,-0
 .00107761,-0.00040442,0.00016787,0.00000075,0.00005879,-0.00002624,-0.
 00014409,-0.00002265,0.00002315,-0.00022018,0.00017176,-0.00034334,0.0
 0015801,0.00001572,0.00013301,-0.00000204,-0.00001928,0.00000087,0.000
 00036,-0.00000069,-0.00001269,-0.00001087,-0.00001550,-0.00001062,0.00
 003458,0.00016198,0.00020071,-0.00006497,-0.00002835,-0.00010109,-0.00
 007444,-0.00010852,0.00013049,-0.00001015,0.00003463,0.00005143,-0.000
 40863,-0.00027988,0.00014954,0.00024100,-0.00012172,-0.00017980,0.0000
 8984,0.00008420,0.00009800,-0.00003290,0.00007381,-0.00012955,0.232187
 46,-0.20847988,-0.07292820,-0.26663298,0.18327809,-0.00009060,-0.00019
 479,-0.00027537,-0.00070066,0.00088712,0.00046770,0.00249047,0.0039687
 2,-0.00194856,0.00263901,-0.00322960,-0.00420277,-0.00234024,0.0012489
 3,0.00021662,0.00106673,-0.00048089,-0.00124870,0.00008210,0.00036586,
 0.00069497,-0.00088482,0.00072309,-0.00012729,-0.02294894,0.00255034,0
 .02866605,-0.00042656,0.00012409,0.00005368,0.00010636,-0.00007327,-0.
 00014032,-0.00005969,-0.00000897,-0.00007210,-0.00020248,-0.00009181,-
 0.00018557,0.00018094,0.00090410,-0.00027017,-0.00329810,-0.00067090,-
 0.00168470,-0.00003151,-0.00008134,-0.00010990,-0.00041679,-0.00008258
 ,0.00003800,0.00036521,-0.00043960,-0.00000548,0.00026900,0.00004848,0
 .00026279,0.00001120,-0.00000929,0.00002007,-0.00000404,-0.00001047,-0
 .00001922,-0.00000558,-0.00000566,-0.00001948,-0.00014268,0.00018351,0
 .00032941,-0.00002593,-0.00000076,-0.00006573,-0.00014114,0.00001739,0
 .00001655,-0.00000659,-0.00006338,-0.00003334,0.00045127,-0.00007789,0
 .00078200,-0.00036228,-0.00042012,0.00020126,-0.00014937,-0.00004805,-
 0.00013116,-0.00014780,0.00004956,-0.00020149,0.11014117,-0.07017509,-
 0.12306514,-0.11343362,0.08798938,0.09232043,0.00004768,-0.00002650,0.
 00015930,0.00120335,-0.00080586,-0.00072701,-0.00521856,-0.00179031,-0
 .00257751,-0.00053733,-0.00045923,0.00026914,0.00026310,0.00024129,-0.
 00017924,-0.00024048,-0.00013946,0.00061337,-0.00066232,-0.00070987,-0
 .00086173,0.00033666,0.00022306,-0.00001562,0.00409257,-0.02767879,-0.
 02409846,-0.00000142,0.00006349,-0.00012636,-0.00003185,0.00000249,0.0
 0003381,-0.00000802,0.00002215,-0.00002802,0.00001015,0.00000474,0.000
 01149,-0.00004833,-0.00024602,0.00008817,0.00020343,-0.00002966,-0.000
 51323,0.00000538,-0.00007430,-0.00006181,0.00006661,0.00002144,-0.0000
 3659,0.00015565,0.00000367,0.00002032,0.00003449,0.00000005,0.00002491
 ,-0.00000520,-0.00000356,-0.00000413,0.00000039,0.00000337,0.00000250,
 -0.00000706,-0.00000628,0.00000271,-0.00013899,-0.00005811,-0.00001393
 ,0.00002739,0.00001110,0.00001433,0.00003644,0.00002949,-0.00003128,0.
 00001238,-0.00000457,-0.00000833,-0.00023739,-0.00011755,-0.00014568,0
 .00010162,0.00004412,-0.00004287,0.00004745,0.00003998,0.00002487,0.00
 002520,0.00001643,-0.00001816,-0.08253886,0.01762763,0.01631868,-0.017
 92034,0.03723153,0.02398820,0.60364761,0.00004083,0.00003178,0.0000962
 3,0.00019983,-0.00004429,-0.00021690,-0.00082993,0.00432692,0.00023153
 ,0.00001963,-0.00110414,-0.00064841,-0.00007199,0.00045846,-0.00018831
 ,0.00017050,-0.00010956,0.00009466,-0.00017144,-0.00013544,-0.00012217
 ,0.00004101,0.00032631,-0.00015554,-0.00452806,-0.01586158,-0.02258366
 ,-0.00015059,0.00002887,-0.00015860,0.00009325,-0.00001515,0.00007001,
 -0.00002441,-0.00001993,-0.00004997,0.00000127,0.00001197,-0.00000752,
 0.00033605,-0.00001822,0.00025888,-0.00024136,0.00006451,0.00026905,-0
 .00003346,-0.00009210,-0.00010861,-0.00004137,-0.00001111,-0.00000235,
 0.00016959,-0.00015829,-0.00007444,0.00014170,0.00001648,0.00012193,-0
 .00000357,-0.00000741,-0.00000016,-0.00000290,-0.00000175,-0.00000520,
 -0.00000339,-0.00000619,0.00000092,-0.00011992,0.00002302,0.00009176,-
 0.00000399,0.00000674,-0.00002512,-0.00001353,0.00000328,0.00000281,0.
 00000653,-0.00000937,-0.00000139,-0.00019961,-0.00015317,0.00011850,0.
 00005367,-0.00006739,-0.00000073,0.00004629,0.00001023,-0.00000962,-0.
 00002331,0.00001665,-0.00003993,0.01773958,-0.16762228,-0.06051354,0.0
 1725391,-0.00066562,-0.02073706,0.02504958,0.51860566,-0.00002443,-0.0
 0007712,0.00010630,0.00070705,-0.00039221,-0.00002745,-0.00232858,-0.0
 0054475,0.00331663,0.00002450,0.00022239,0.00065205,0.00012984,0.00004
 271,0.00017875,-0.00003664,-0.00020480,0.00040041,-0.00036519,-0.00027
 279,-0.00064835,0.00010954,0.00033472,-0.00012619,-0.00462955,-0.02604
 830,-0.01179600,-0.00013273,0.00011239,-0.00017366,0.00002754,-0.00004
 037,0.00001541,-0.00001728,0.00000612,-0.00004739,0.00008350,0.0000724
 8,0.00000622,-0.00031163,-0.00039029,-0.00058072,0.00018998,0.00001823
 ,-0.00015922,0.00001119,0.00000240,-0.00002762,0.00001410,0.00002127,-
 0.00004270,0.00008161,-0.00003678,-0.00010703,0.00011799,0.00001067,0.
 00009632,-0.00000646,-0.00000839,-0.00000361,-0.00000116,0.00000155,-0
 .00000161,-0.00000735,-0.00000948,-0.00000069,-0.00009356,0.00001257,0
 .00005291,0.00000516,0.00000440,-0.00001647,0.00000167,-0.00000246,-0.
 00000146,0.00000431,-0.00000180,0.00000282,-0.00014812,-0.00009175,0.0
 0002292,0.00004432,0.00002555,0.00001623,0.00002204,0.00001425,-0.0000
 0592,0.00002015,0.00002387,-0.00001605,0.01715366,-0.06079064,-0.14010
 369,0.00704661,-0.01814695,0.01326977,0.02966446,-0.01172167,0.5360184
 6,0.00001964,-0.00002268,-0.00003715,0.00008531,-0.00001189,0.00002000
 ,0.00012338,0.00068141,0.00007711,-0.00005599,-0.00015160,-0.00009097,
 0.00004285,0.00005500,-0.00003919,0.00005099,-0.00002412,0.00001835,-0
 .00004668,0.00000915,-0.00000783,0.00000668,0.00001764,-0.00002771,-0.
 00038007,-0.00141404,-0.00145718,-0.00004069,0.00003389,0.00001234,0.0
 0002659,-0.00000273,-0.00000784,-0.00000774,-0.00001132,-0.00001488,0.
 00001905,-0.00001706,0.00000508,-0.00002366,-0.00003922,0.00004377,-0.
 00000721,0.00000148,-0.00000418,-0.00000644,-0.00001506,-0.00002065,-0
 .00000443,-0.00000094,-0.00000023,0.00000545,-0.00001547,-0.00000601,0
 .00000788,0.00000253,0.00000781,-0.00000010,-0.00000023,0.00000076,0.0
 0000053,-0.00000263,-0.00000203,0.00000008,-0.00000025,-0.00000367,-0.
 00001228,-0.00000244,0.00000589,-0.00000035,0.00000146,-0.00000232,-0.
 00000105,0.00000030,0.00000006,0.00000050,0.00000026,0.00000158,-0.000
 05184,-0.00002883,0.00002331,-0.00000083,-0.00000120,-0.00000047,0.000
 00768,-0.00000052,-0.00000169,0.00000429,0.00000372,0.00000131,-0.0084
 8844,-0.00026290,0.00453278,0.00132051,0.00213727,0.00099304,-0.163606
 20,-0.05800250,0.12683165,0.17540378,-0.00002532,0.00000953,-0.0000013
 7,0.00006522,0.00003725,0.00000671,0.00005560,-0.00016407,0.00050161,0
 .00006216,0.00007181,0.00012001,-0.00002301,-0.00001666,0.00004464,0.0
 0000548,0.00001027,-0.00003397,-0.00001346,-0.00001871,0.00000671,0.00
 000449,0.00007065,-0.00001732,-0.00094023,-0.00097681,0.00098461,0.000
 01282,-0.00000961,0.00001645,-0.00001082,-0.00000312,0.00001023,-0.000
 00133,0.00000839,0.00000046,-0.00002707,-0.00001070,-0.00002978,-0.000
 00983,-0.00001179,-0.00010355,0.00000602,0.00000359,0.00005867,-0.0000
 0041,0.00000205,0.00000225,-0.00000498,-0.00000125,0.00000064,-0.00000
 824,0.00000478,-0.00000652,-0.00000594,0.00000026,-0.00000533,0.000000
 91,-0.00000034,0.00000031,-0.00000058,0.00000125,0.00000003,-0.0000017
 4,0.00000020,0.00000132,0.00000737,0.00000714,0.00000457,-0.00000231,-
 0.00000310,-0.00000293,-0.00000361,-0.00000383,0.00000551,-0.00000007,
 0.00000070,-0.00000050,-0.00003655,-0.00003360,0.00001797,0.00002005,-
 0.00002680,-0.00000056,0.00000792,0.00001618,0.00000668,-0.00001041,0.
 00000495,-0.00002760,0.01926327,0.01224990,-0.01978267,0.00158756,-0.0
 0670531,-0.00005052,-0.05734335,-0.06650832,0.05336465,0.05912347,0.07
 236283,-0.00000857,-0.00004695,-0.00010065,0.00010669,-0.00005222,-0.0
 0005464,-0.00017143,-0.00059564,0.00026621,0.00002715,0.00022790,0.000
 12231,-0.00001956,-0.00004770,0.00005620,0.00007267,-0.00000890,-0.000
 04993,-0.00005611,0.00002407,0.00006247,-0.00006409,-0.00006304,-0.000
 01201,-0.00135711,-0.00102734,0.00113302,-0.00002942,0.00004235,0.0000
 7796,0.00002512,0.00000952,-0.00004151,-0.00001024,-0.00000638,-0.0000
 0989,-0.00002409,-0.00005555,-0.00000570,-0.00003293,0.00003371,-0.000
 05721,-0.00001468,0.00000350,0.00005559,0.00000179,0.00001763,0.000015
 65,-0.00001184,-0.00000348,0.00000435,-0.00004661,0.00000182,-0.000002
 08,-0.00002279,0.00000279,-0.00001403,0.00000262,0.00000206,0.00000268
 ,0.00000127,-0.00000328,-0.00000171,0.00000140,0.00000150,-0.00000622,
 0.00003211,0.00000792,-0.00000417,-0.00000350,-0.00000254,-0.00000110,
 -0.00000602,-0.00000551,0.00000374,-0.00000246,0.00000153,0.00000164,0
 .00004510,0.00003275,0.00002762,-0.00003787,0.00000269,0.00001114,-0.0
 0001346,-0.00001278,-0.00000878,0.00000461,-0.00000347,0.00000893,0.01
 370550,0.01017793,-0.01391031,-0.00048918,-0.00296309,0.00006985,0.126
 08275,0.05358018,-0.17698457,-0.13889009,-0.05907300,0.18859391,0.0000
 2155,-0.00005715,-0.00006182,0.00010082,-0.00003024,0.00001741,-0.0000
 1029,0.00009903,0.00044652,-0.00006831,0.00019349,0.00000704,0.0000386
 9,0.00001261,0.00001145,0.00007950,-0.00002019,0.00001068,-0.00006453,
 0.00001588,0.00000415,-0.00009036,-0.00019632,-0.00001932,-0.00052092,
 -0.00139681,-0.00117992,-0.00006311,0.00005215,0.00003903,0.00004540,-
 0.00002041,-0.00004315,-0.00001091,-0.00001234,-0.00001606,0.00000697,
 -0.00001573,0.00000470,-0.00008118,-0.00010667,-0.00007773,0.00002504,
 0.00000897,-0.00003119,0.00000059,0.00000754,0.00000611,-0.00000727,0.
 00000190,-0.00000240,-0.00000823,-0.00004077,-0.00000810,0.00000563,0.
 00000387,0.00000757,0.00000107,0.00000237,0.00000202,0.00000070,-0.000
 00353,-0.00000156,0.00000222,-0.00000033,-0.00000831,0.00000304,0.0000
 0411,-0.00000192,0.00000204,0.00000339,0.00000179,-0.00000512,0.000001
 39,-0.00000576,-0.00000150,-0.00000253,0.00000011,0.00013590,0.0000726
 8,0.00002594,-0.00009438,0.00005148,0.00001764,-0.00003603,-0.00004144
 ,-0.00003508,0.00002885,-0.00000500,0.00004412,-0.00712935,0.00632455,
 -0.00309584,0.00049123,0.00107287,0.00270039,-0.09090790,0.08541626,-0
 .06703374,0.00943701,-0.01689783,0.01111743,0.09731832,0.00000141,-0.0
 0009924,-0.00008454,0.00000221,-0.00001205,-0.00000735,0.00005548,0.00
 041857,-0.00069197,0.00008966,-0.00034257,-0.00009686,-0.00003356,0.00
 003716,-0.00004955,0.00008017,-0.00003465,-0.00003948,-0.00001323,0.00
 005061,0.00007611,-0.00012858,0.00017490,0.00016219,-0.00090452,0.0014
 2402,-0.00157743,-0.00002207,0.00006544,0.00007147,-0.00003576,-0.0000
 4455,-0.00007944,-0.00000477,0.00001456,-0.00000243,-0.00000768,-0.000
 02230,0.00000829,0.00004013,0.00020027,0.00015340,-0.00009101,0.000021
 72,0.00009858,-0.00000660,-0.00001597,-0.00001999,-0.00001387,-0.00000
 210,0.00000271,-0.00004920,0.00003774,0.00001534,-0.00003505,0.0000016
 9,-0.00002523,0.00000232,0.00000053,0.00000266,0.00000272,-0.00000198,
 -0.00000081,-0.00000190,0.00000086,-0.00000709,0.00003600,0.00001063,-
 0.00000464,-0.00000602,-0.00000355,-0.00000204,-0.00000435,-0.00000655
 ,0.00000795,-0.00000262,0.00000238,0.00000213,0.00010284,0.00006601,-0
 .00007125,0.00001937,-0.00003445,-0.00002256,-0.00001315,0.00001207,0.
 00002944,-0.00000399,0.00000964,-0.00002882,0.01157276,-0.01882464,0.0
 1841480,0.00022544,-0.00055277,-0.00433452,0.08485850,-0.19251801,0.10
 636506,0.00387417,-0.00647023,0.00391630,-0.09481020,0.20631050,-0.000
 01083,-0.00003224,0.00001668,-0.00001379,0.00007778,0.00002616,0.00025
 313,0.00055889,0.00001938,0.00003323,-0.00039364,-0.00000007,-0.000038
 80,0.00003967,-0.00004261,0.00001798,-0.00002715,-0.00000037,0.0000183
 0,0.00001285,0.00000684,-0.00006423,0.00033489,0.00011133,-0.00056465,
 0.00038696,-0.00130095,0.00000178,0.00002065,-0.00000572,-0.00003183,-
 0.00004467,0.00000541,-0.00000079,0.00001827,0.00000240,-0.00000540,0.
 00000895,-0.00000775,0.00007729,0.00001426,0.00000912,-0.00006077,0.00
 003767,0.00009953,-0.00000611,-0.00001884,-0.00002999,-0.00000639,-0.0
 0000070,-0.00000005,-0.00000179,0.00002798,-0.00000448,-0.00000615,-0.
 00000273,-0.00000689,-0.00000010,-0.00000226,-0.00000019,0.00000037,0.
 00000204,0.00000007,-0.00000495,-0.00000207,0.00000002,0.00000261,0.00
 000704,0.00000630,-0.00000308,-0.00000308,-0.00000425,-0.00000089,-0.0
 0000306,0.00000760,-0.00000016,0.00000097,-0.00000033,0.00001014,-0.00
 002444,-0.00002978,0.00005448,-0.00003386,0.00000320,0.00000609,0.0000
 4124,0.00003010,-0.00001095,0.00001453,-0.00006735,0.00867183,-0.01639
 040,0.01533769,0.00266417,-0.00073585,-0.00494527,-0.06599330,0.105565
 09,-0.12137942,-0.01087843,0.01624689,-0.01146720,0.06890216,-0.115498
 70,0.13080338,-0.00000178,0.00003872,0.00003071,-0.00014862,0.00009248
 ,0.00010041,0.00064380,0.00054905,0.00038194,0.00002848,-0.00001431,-0
 .00008493,-0.00000331,-0.00000708,-0.00001043,-0.00000995,0.00003117,-
 0.00004501,0.00009096,0.00006911,0.00007338,0.00000453,-0.00003489,0.0
 0000981,0.00065873,0.00200674,0.00147344,0.00001808,-0.00003292,-0.000
 01980,-0.00000481,0.00000709,0.00002437,0.00000720,-0.00000183,0.00001
 011,0.00000245,0.00002178,0.00000111,0.00000488,-0.00003156,-0.0000364
 9,-0.00000038,-0.00000715,-0.00000823,-0.00000114,0.00000068,0.0000038
 7,-0.00000008,-0.00000156,0.00000253,-0.00000380,-0.00000098,0.0000041
 1,0.00000577,-0.00000101,0.00000174,-0.00000032,-0.00000037,-0.0000007
 3,-0.00000096,0.00000117,0.00000080,0.00000071,0.00000035,0.00000320,0
 .00000762,0.00000260,0.00000014,-0.00000121,-0.00000025,-0.00000005,0.
 00000048,-0.00000135,-0.00000019,0.00000015,0.00000068,0.00000031,0.00
 000181,0.00000011,0.00000725,0.00000782,-0.00000204,-0.00000453,0.0000
 0262,0.00000001,0.00000088,-0.00000555,-0.00000294,0.00000245,0.006546
 45,0.00342293,0.00491511,0.00074385,0.00013786,0.00033434,-0.24820733,
 -0.08231412,-0.10715444,-0.01382821,-0.00485524,-0.00991414,-0.0086451
 7,-0.00477508,-0.00301019,0.26208627,0.00001362,-0.00004922,0.00002159
 ,0.00035407,-0.00016095,-0.00013351,-0.00109990,0.00037615,-0.00050841
 ,-0.00012073,-0.00028393,0.00001291,0.00006083,0.00014223,-0.00006555,
 0.00000188,-0.00006853,0.00016661,-0.00019439,-0.00017433,-0.00023379,
 0.00004108,0.00010033,-0.00002891,0.00102328,-0.00468360,-0.00480371,-
 0.00004695,0.00005059,-0.00003884,0.00000825,-0.00003283,-0.00001658,-
 0.00001026,0.00000443,-0.00002103,0.00001091,0.00000879,0.00000369,-0.
 00005459,-0.00002275,0.00001125,0.00002265,0.00001565,-0.00005364,-0.0
 0000471,-0.00003339,-0.00003643,0.00000434,0.00000674,-0.00001308,0.00
 006428,-0.00003468,-0.00000966,0.00002934,0.00000356,0.00002464,-0.000
 00171,-0.00000158,-0.00000062,0.00000032,-0.00000023,-0.00000084,-0.00
 000292,-0.00000298,-0.00000288,-0.00005509,-0.00000673,0.00001286,0.00
 000738,0.00000392,-0.00000043,0.00000267,0.00000852,-0.00000739,0.0000
 0315,-0.00000458,-0.00000346,-0.00003866,-0.00003236,-0.00000755,0.000
 01054,0.00001307,-0.00000478,0.00000520,0.00000579,0.00000018,0.000015
 54,0.00001244,-0.00000838,-0.02473046,-0.00847233,-0.00911995,0.000580
 72,0.00187235,0.00222601,-0.07600067,-0.07880154,-0.04187472,-0.005914
 12,-0.00389748,-0.00411528,0.02031298,0.01012633,0.00979708,0.08570214
 ,0.08401311,0.00000150,-0.00000271,0.00003260,0.00031477,-0.00013906,-
 0.00012349,-0.00095242,-0.00030359,0.00056723,-0.00011914,-0.00004580,
 0.00013776,0.00002246,0.00006171,-0.00001213,-0.00002974,-0.00005706,0
 .00014335,-0.00015925,-0.00014760,-0.00021700,0.00015882,0.00014359,-0
 .00012373,0.00076132,-0.00451934,-0.00245323,-0.00002627,0.00002649,-0
 .00004747,0.00001862,0.00000423,0.00001925,-0.00000871,-0.00000163,-0.
 00001873,0.00001040,-0.00000987,-0.00000599,-0.00001110,-0.00015361,-0
 .00010696,0.00002478,-0.00000529,-0.00003490,-0.00000026,-0.00001868,-
 0.00002231,0.00000702,0.00000336,-0.00001001,0.00005697,-0.00000862,-0
 .00002005,0.00002555,0.00000186,0.00002315,-0.00000209,-0.00000251,-0.
 00000113,0.00000002,0.00000001,-0.00000090,-0.00000237,-0.00000235,0.0
 0000039,-0.00005300,-0.00001185,0.00001223,0.00000388,0.00000150,-0.00
 000333,0.00000516,0.00000477,-0.00000036,0.00000368,-0.00000065,-0.000
 00057,-0.00021141,-0.00010448,0.00002019,0.00004795,-0.00002105,-0.000
 00922,0.00003857,0.00001895,0.00001077,0.00000121,0.00000912,-0.000010
 64,-0.01893503,-0.00345718,-0.00983046,0.00076339,0.00198242,0.0013426
 2,-0.10183575,-0.04313063,-0.10190539,0.01891769,0.00773469,0.01221848
 ,-0.01174436,-0.00668172,-0.00719249,0.11290714,0.04883256,0.10762246\
 \0.00000268,-0.00000020,-0.00000971,-0.00000582,0.00000640,-0.00000647
 ,0.00000251,-0.00000606,-0.00001348,0.00000255,-0.00000849,0.00000661,
 0.00000186,-0.00000590,-0.00000005,0.00000488,-0.00000272,0.00001131,0
 .00000255,-0.00000101,-0.00001853,-0.00000454,0.00000462,0.00000361,-0
 .00000510,0.00000092,0.00001047,-0.00000499,0.00000314,-0.00000677,-0.
 00000061,0.00000097,-0.00000489,-0.00000017,0.00000112,-0.00000988,-0.
 00000503,-0.00000183,-0.00000839,-0.00000796,-0.00000147,0.00000186,-0
 .00000297,-0.00000033,0.00000456,0.00000533,0.00000315,0.00000195,0.00
 000376,0.00000325,-0.00000523,-0.00000229,0.00000486,-0.00000124,0.000
 00712,0.00001164,-0.00000384,0.00000839,0.00000374,-0.00000743,0.00000
 548,0.00000432,-0.00001320,0.00000824,0.00000476,-0.00001002,0.0000103
 7,-0.00000021,0.00000444,0.00000505,0.00000184,0.00000631,0.00000045,-
 0.00000243,0.00000802,0.00000151,0.00000005,0.00000396,0.00001070,0.00
 000346,0.00000451,0.00000028,-0.00000135,0.00000907,0.00000532,0.00000
 152,0.00000797,0.00000521,-0.00000011,0.00000643,-0.00000799,-0.000010
 69,-0.00000308,-0.00001150,0.,0.00001075,-0.00000935,0.00000212,0.0000
 0419,-0.00001016,-0.00000860,0.00000225,-0.00000445,-0.00000501,0.0000
 0473,-0.00001131,-0.00000549,0.00000920\\\@


  ON THE CHOICE OF THE CORRECT LANGUAGE -
 I SPEAK SPANISH TO GOD, ITALIAN TO WOMEN,
 FRENCH TO MEN, AND GERMAN TO MY HORSE.
          -- CHARLES V
 Job cpu time:       0 days  6 hours 46 minutes  5.3 seconds.
 File lengths (MBytes):  RWF=    766 Int=      0 D2E=      0 Chk=     19 Scr=      1
 Normal termination of Gaussian 09 at Tue Jan 10 04:21:37 2017.
