 Entering Gaussian System, Link 0=g09
 Initial command:
 /share/apps//g09/l1.exe "/scratch/Gau-1935.inp" -scrdir="/scratch/"
 Entering Link 1 = /share/apps//g09/l1.exe PID=      1936.
  
 Copyright (c) 1988,1990,1992,1993,1995,1998,2003,2009,2013,
            Gaussian, Inc.  All Rights Reserved.
  
 This is part of the Gaussian(R) 09 program.  It is based on
 the Gaussian(R) 03 system (copyright 2003, Gaussian, Inc.),
 the Gaussian(R) 98 system (copyright 1998, Gaussian, Inc.),
 the Gaussian(R) 94 system (copyright 1995, Gaussian, Inc.),
 the Gaussian 92(TM) system (copyright 1992, Gaussian, Inc.),
 the Gaussian 90(TM) system (copyright 1990, Gaussian, Inc.),
 the Gaussian 88(TM) system (copyright 1988, Gaussian, Inc.),
 the Gaussian 86(TM) system (copyright 1986, Carnegie Mellon
 University), and the Gaussian 82(TM) system (copyright 1983,
 Carnegie Mellon University). Gaussian is a federally registered
 trademark of Gaussian, Inc.
  
 This software contains proprietary and confidential information,
 including trade secrets, belonging to Gaussian, Inc.
  
 This software is provided under written license and may be
 used, copied, transmitted, or stored only in accord with that
 written license.
  
 The following legend is applicable only to US Government
 contracts under FAR:
  
                    RESTRICTED RIGHTS LEGEND
  
 Use, reproduction and disclosure by the US Government is
 subject to restrictions as set forth in subparagraphs (a)
 and (c) of the Commercial Computer Software - Restricted
 Rights clause in FAR 52.227-19.
  
 Gaussian, Inc.
 340 Quinnipiac St., Bldg. 40, Wallingford CT 06492
  
  
 ---------------------------------------------------------------
 Warning -- This program may not be used in any manner that
 competes with the business of Gaussian, Inc. or will provide
 assistance to any competitor of Gaussian, Inc.  The licensee
 of this program is prohibited from giving any competitor of
 Gaussian, Inc. access to this program.  By using this program,
 the user acknowledges that Gaussian, Inc. is engaged in the
 business of creating and licensing software in the field of
 computational chemistry and represents and warrants to the
 licensee that it is not a competitor of Gaussian, Inc. and that
 it will not use this program in any manner prohibited above.
 ---------------------------------------------------------------
  

 Cite this work as:
 Gaussian 09, Revision D.01,
 M. J. Frisch, G. W. Trucks, H. B. Schlegel, G. E. Scuseria, 
 M. A. Robb, J. R. Cheeseman, G. Scalmani, V. Barone, B. Mennucci, 
 G. A. Petersson, H. Nakatsuji, M. Caricato, X. Li, H. P. Hratchian, 
 A. F. Izmaylov, J. Bloino, G. Zheng, J. L. Sonnenberg, M. Hada, 
 M. Ehara, K. Toyota, R. Fukuda, J. Hasegawa, M. Ishida, T. Nakajima, 
 Y. Honda, O. Kitao, H. Nakai, T. Vreven, J. A. Montgomery, Jr., 
 J. E. Peralta, F. Ogliaro, M. Bearpark, J. J. Heyd, E. Brothers, 
 K. N. Kudin, V. N. Staroverov, T. Keith, R. Kobayashi, J. Normand, 
 K. Raghavachari, A. Rendell, J. C. Burant, S. S. Iyengar, J. Tomasi, 
 M. Cossi, N. Rega, J. M. Millam, M. Klene, J. E. Knox, J. B. Cross, 
 V. Bakken, C. Adamo, J. Jaramillo, R. Gomperts, R. E. Stratmann, 
 O. Yazyev, A. J. Austin, R. Cammi, C. Pomelli, J. W. Ochterski, 
 R. L. Martin, K. Morokuma, V. G. Zakrzewski, G. A. Voth, 
 P. Salvador, J. J. Dannenberg, S. Dapprich, A. D. Daniels, 
 O. Farkas, J. B. Foresman, J. V. Ortiz, J. Cioslowski, 
 and D. J. Fox, Gaussian, Inc., Wallingford CT, 2013.
 
 ******************************************
 Gaussian 09:  EM64L-G09RevD.01 24-Apr-2013
                24-Oct-2017 
 ******************************************
 %nproc=20
 Will use up to   20 processors via shared memory.
 %mem=100GB
 %chk=Ac-4_cGalMe.chk
 -------------------------------------------------------------------
 #P PBE1PBE/6-311+G(d,p) opt optcyc=999 freq EmpiricalDispersion=GD3
 -------------------------------------------------------------------
 1/6=999,14=-1,18=20,19=15,26=3,38=1/1,3;
 2/9=110,12=2,17=6,18=5,40=1/2;
 3/5=4,6=6,7=111,11=2,16=1,25=1,30=1,71=1,74=-13,124=31/1,2,3;
 4//1;
 5/5=2,38=5/2;
 6/7=2,8=2,9=2,10=2,28=1/1;
 7//1,2,3,16;
 1/6=999,14=-1,18=20,19=15,26=3/3(2);
 2/9=110/2;
 99//99;
 2/9=110/2;
 3/5=4,6=6,7=111,11=2,16=1,25=1,30=1,71=1,74=-13,124=31/1,2,3;
 4/5=5,16=3,69=1/1;
 5/5=2,38=5/2;
 7//1,2,3,16;
 1/6=999,14=-1,18=20,19=15,26=3/3(-5);
 2/9=110/2;
 6/7=2,8=2,9=2,10=2,19=2,28=1/1;
 99/9=1/99;
 Leave Link    1 at Tue Oct 24 12:45:24 2017, MaxMem= 13421772800 cpu:         1.5
 (Enter /share/apps//g09/l101.exe)
 -------
 disacch
 -------
 Symbolic Z-matrix:
 Charge =  1 Multiplicity = 1
 C                    -1.11005  -1.55609   2.97411 
 C                     0.01796  -1.11682   2.05459 
 C                     0.23756   0.38328   1.96812 
 C                     1.45826   0.7393    1.0757 
 C                     1.57107  -0.24967  -0.10463 
 C                     0.22258  -0.94944  -0.31002 
 O                    -0.27881  -1.64463   0.71365 
 O                     1.39316   2.04504   0.54634 
 O                    -0.9817    1.07249   1.45823 
 O                    -0.98053  -2.94545   3.15216 
 H                    -2.0902   -1.28975   2.52991 
 H                    -1.01583  -1.00934   3.93599 
 H                     0.95577  -1.58998   2.39279 
 H                     0.33721   0.81057   2.9735 
 H                     2.36047   0.59394   1.69942 
 H                     1.82667   0.32116  -1.01513 
 H                     0.09515  -1.51446  -1.2388 
 O                     2.56269  -1.19635   0.23278 
 C                    -2.05097  -3.50162   3.92237 
 H                    -1.8523   -4.57564   3.99881 
 H                    -2.08489  -3.0639    4.93503 
 H                    -3.02337  -3.34415   3.42469 
 C                     3.04063  -1.99363  -0.86825 
 H                     2.2992   -2.74237  -1.18745 
 H                     3.32159  -1.35347  -1.71963 
 H                     3.9286   -2.51387  -0.49528 
 C                     1.65976   3.08694   1.503 
 H                     0.8409    3.19544   2.23307 
 H                     2.60675   2.89625   2.03219 
 H                     1.7486    4.01276   0.92532 
 C                    -1.26895   1.08818   0.18161 
 O                    -0.79581   0.30169  -0.70148 
 C                    -2.25778   2.11168  -0.23673 
 H                    -1.70274   3.03837  -0.45119 
 H                    -2.96019   2.32043   0.57724 
 H                    -2.77786   1.7972   -1.14595 
 
 NAtoms=     36 NQM=       36 NQMF=       0 NMMI=      0 NMMIF=      0
                NMic=       0 NMicF=      0.
                    Isotopes and Nuclear Properties:
 (Nuclear quadrupole moments (NQMom) in fm**2, nuclear magnetic moments (NMagM)
  in nuclear magnetons)

  Atom         1           2           3           4           5           6           7           8           9          10
 IAtWgt=          12          12          12          12          12          12          16          16          16          16
 AtmWgt=  12.0000000  12.0000000  12.0000000  12.0000000  12.0000000  12.0000000  15.9949146  15.9949146  15.9949146  15.9949146
 NucSpn=           0           0           0           0           0           0           0           0           0           0
 AtZEff=   0.0000000   0.0000000   0.0000000   0.0000000   0.0000000   0.0000000   0.0000000   0.0000000   0.0000000   0.0000000
 NQMom=    0.0000000   0.0000000   0.0000000   0.0000000   0.0000000   0.0000000   0.0000000   0.0000000   0.0000000   0.0000000
 NMagM=    0.0000000   0.0000000   0.0000000   0.0000000   0.0000000   0.0000000   0.0000000   0.0000000   0.0000000   0.0000000
 AtZNuc=   6.0000000   6.0000000   6.0000000   6.0000000   6.0000000   6.0000000   8.0000000   8.0000000   8.0000000   8.0000000

  Atom        11          12          13          14          15          16          17          18          19          20
 IAtWgt=           1           1           1           1           1           1           1          16          12           1
 AtmWgt=   1.0078250   1.0078250   1.0078250   1.0078250   1.0078250   1.0078250   1.0078250  15.9949146  12.0000000   1.0078250
 NucSpn=           1           1           1           1           1           1           1           0           0           1
 AtZEff=   0.0000000   0.0000000   0.0000000   0.0000000   0.0000000   0.0000000   0.0000000   0.0000000   0.0000000   0.0000000
 NQMom=    0.0000000   0.0000000   0.0000000   0.0000000   0.0000000   0.0000000   0.0000000   0.0000000   0.0000000   0.0000000
 NMagM=    2.7928460   2.7928460   2.7928460   2.7928460   2.7928460   2.7928460   2.7928460   0.0000000   0.0000000   2.7928460
 AtZNuc=   1.0000000   1.0000000   1.0000000   1.0000000   1.0000000   1.0000000   1.0000000   8.0000000   6.0000000   1.0000000

  Atom        21          22          23          24          25          26          27          28          29          30
 IAtWgt=           1           1          12           1           1           1          12           1           1           1
 AtmWgt=   1.0078250   1.0078250  12.0000000   1.0078250   1.0078250   1.0078250  12.0000000   1.0078250   1.0078250   1.0078250
 NucSpn=           1           1           0           1           1           1           0           1           1           1
 AtZEff=   0.0000000   0.0000000   0.0000000   0.0000000   0.0000000   0.0000000   0.0000000   0.0000000   0.0000000   0.0000000
 NQMom=    0.0000000   0.0000000   0.0000000   0.0000000   0.0000000   0.0000000   0.0000000   0.0000000   0.0000000   0.0000000
 NMagM=    2.7928460   2.7928460   0.0000000   2.7928460   2.7928460   2.7928460   0.0000000   2.7928460   2.7928460   2.7928460
 AtZNuc=   1.0000000   1.0000000   6.0000000   1.0000000   1.0000000   1.0000000   6.0000000   1.0000000   1.0000000   1.0000000

  Atom        31          32          33          34          35          36
 IAtWgt=          12          16          12           1           1           1
 AtmWgt=  12.0000000  15.9949146  12.0000000   1.0078250   1.0078250   1.0078250
 NucSpn=           0           0           0           1           1           1
 AtZEff=   0.0000000   0.0000000   0.0000000   0.0000000   0.0000000   0.0000000
 NQMom=    0.0000000   0.0000000   0.0000000   0.0000000   0.0000000   0.0000000
 NMagM=    0.0000000   0.0000000   0.0000000   2.7928460   2.7928460   2.7928460
 AtZNuc=   6.0000000   8.0000000   6.0000000   1.0000000   1.0000000   1.0000000
 Leave Link  101 at Tue Oct 24 12:45:25 2017, MaxMem= 13421772800 cpu:         4.4
 (Enter /share/apps//g09/l103.exe)

 GradGradGradGradGradGradGradGradGradGradGradGradGradGradGradGradGradGrad
 Berny optimization.
 Initialization pass.
                           ----------------------------
                           !    Initial Parameters    !
                           ! (Angstroms and Degrees)  !
 --------------------------                            --------------------------
 ! Name  Definition              Value          Derivative Info.                !
 --------------------------------------------------------------------------------
 ! R1    R(1,2)                  1.5202         estimate D2E/DX2                !
 ! R2    R(1,10)                 1.4067         estimate D2E/DX2                !
 ! R3    R(1,11)                 1.1086         estimate D2E/DX2                !
 ! R4    R(1,12)                 1.1104         estimate D2E/DX2                !
 ! R5    R(2,3)                  1.5186         estimate D2E/DX2                !
 ! R6    R(2,7)                  1.4713         estimate D2E/DX2                !
 ! R7    R(2,13)                 1.1035         estimate D2E/DX2                !
 ! R8    R(3,4)                  1.5535         estimate D2E/DX2                !
 ! R9    R(3,9)                  1.4905         estimate D2E/DX2                !
 ! R10   R(3,14)                 1.0969         estimate D2E/DX2                !
 ! R11   R(4,5)                  1.544          estimate D2E/DX2                !
 ! R12   R(4,8)                  1.4105         estimate D2E/DX2                !
 ! R13   R(4,15)                 1.1064         estimate D2E/DX2                !
 ! R14   R(5,6)                  1.5331         estimate D2E/DX2                !
 ! R15   R(5,16)                 1.1046         estimate D2E/DX2                !
 ! R16   R(5,18)                 1.4119         estimate D2E/DX2                !
 ! R17   R(6,7)                  1.3351         estimate D2E/DX2                !
 ! R18   R(6,17)                 1.0946         estimate D2E/DX2                !
 ! R19   R(6,32)                 1.66           estimate D2E/DX2                !
 ! R20   R(8,27)                 1.4394         estimate D2E/DX2                !
 ! R21   R(9,31)                 1.3086         estimate D2E/DX2                !
 ! R22   R(10,19)                1.4312         estimate D2E/DX2                !
 ! R23   R(18,23)                1.441          estimate D2E/DX2                !
 ! R24   R(19,20)                1.0949         estimate D2E/DX2                !
 ! R25   R(19,21)                1.1037         estimate D2E/DX2                !
 ! R26   R(19,22)                1.1037         estimate D2E/DX2                !
 ! R27   R(23,24)                1.101          estimate D2E/DX2                !
 ! R28   R(23,25)                1.1016         estimate D2E/DX2                !
 ! R29   R(23,26)                1.0946         estimate D2E/DX2                !
 ! R30   R(27,28)                1.1024         estimate D2E/DX2                !
 ! R31   R(27,29)                1.1015         estimate D2E/DX2                !
 ! R32   R(27,30)                1.0949         estimate D2E/DX2                !
 ! R33   R(31,32)                1.2737         estimate D2E/DX2                !
 ! R34   R(31,33)                1.4834         estimate D2E/DX2                !
 ! R35   R(33,34)                1.1013         estimate D2E/DX2                !
 ! R36   R(33,35)                1.0952         estimate D2E/DX2                !
 ! R37   R(33,36)                1.0936         estimate D2E/DX2                !
 ! A1    A(2,1,10)             107.0761         estimate D2E/DX2                !
 ! A2    A(2,1,11)             110.1374         estimate D2E/DX2                !
 ! A3    A(2,1,12)             108.586          estimate D2E/DX2                !
 ! A4    A(10,1,11)            111.6797         estimate D2E/DX2                !
 ! A5    A(10,1,12)            111.6453         estimate D2E/DX2                !
 ! A6    A(11,1,12)            107.6871         estimate D2E/DX2                !
 ! A7    A(1,2,3)              115.2901         estimate D2E/DX2                !
 ! A8    A(1,2,7)              107.3346         estimate D2E/DX2                !
 ! A9    A(1,2,13)             108.7432         estimate D2E/DX2                !
 ! A10   A(3,2,7)              109.3687         estimate D2E/DX2                !
 ! A11   A(3,2,13)             108.5493         estimate D2E/DX2                !
 ! A12   A(7,2,13)             107.2725         estimate D2E/DX2                !
 ! A13   A(2,3,4)              111.8846         estimate D2E/DX2                !
 ! A14   A(2,3,9)              110.9754         estimate D2E/DX2                !
 ! A15   A(2,3,14)             110.227          estimate D2E/DX2                !
 ! A16   A(4,3,9)              109.895          estimate D2E/DX2                !
 ! A17   A(4,3,14)             111.4605         estimate D2E/DX2                !
 ! A18   A(9,3,14)             101.9894         estimate D2E/DX2                !
 ! A19   A(3,4,5)              110.4736         estimate D2E/DX2                !
 ! A20   A(3,4,8)              113.0476         estimate D2E/DX2                !
 ! A21   A(3,4,15)             106.6669         estimate D2E/DX2                !
 ! A22   A(5,4,8)              108.0247         estimate D2E/DX2                !
 ! A23   A(5,4,15)             106.6916         estimate D2E/DX2                !
 ! A24   A(8,4,15)             111.7672         estimate D2E/DX2                !
 ! A25   A(4,5,6)              109.3002         estimate D2E/DX2                !
 ! A26   A(4,5,16)             108.4225         estimate D2E/DX2                !
 ! A27   A(4,5,18)             107.3438         estimate D2E/DX2                !
 ! A28   A(6,5,16)             109.207          estimate D2E/DX2                !
 ! A29   A(6,5,18)             110.1053         estimate D2E/DX2                !
 ! A30   A(16,5,18)            112.3936         estimate D2E/DX2                !
 ! A31   A(5,6,7)              117.7278         estimate D2E/DX2                !
 ! A32   A(5,6,17)             116.8528         estimate D2E/DX2                !
 ! A33   A(5,6,32)             103.1318         estimate D2E/DX2                !
 ! A34   A(7,6,17)             109.7599         estimate D2E/DX2                !
 ! A35   A(7,6,32)             110.0509         estimate D2E/DX2                !
 ! A36   A(17,6,32)             96.7497         estimate D2E/DX2                !
 ! A37   A(2,7,6)              115.8643         estimate D2E/DX2                !
 ! A38   A(4,8,27)             114.3377         estimate D2E/DX2                !
 ! A39   A(3,9,31)             121.2536         estimate D2E/DX2                !
 ! A40   A(1,10,19)            112.5234         estimate D2E/DX2                !
 ! A41   A(5,18,23)            114.9198         estimate D2E/DX2                !
 ! A42   A(10,19,20)           106.442          estimate D2E/DX2                !
 ! A43   A(10,19,21)           111.2611         estimate D2E/DX2                !
 ! A44   A(10,19,22)           111.1528         estimate D2E/DX2                !
 ! A45   A(20,19,21)           109.3014         estimate D2E/DX2                !
 ! A46   A(20,19,22)           109.3483         estimate D2E/DX2                !
 ! A47   A(21,19,22)           109.273          estimate D2E/DX2                !
 ! A48   A(18,23,24)           111.9895         estimate D2E/DX2                !
 ! A49   A(18,23,25)           110.7071         estimate D2E/DX2                !
 ! A50   A(18,23,26)           105.764          estimate D2E/DX2                !
 ! A51   A(24,23,25)           110.0516         estimate D2E/DX2                !
 ! A52   A(24,23,26)           108.7747         estimate D2E/DX2                !
 ! A53   A(25,23,26)           109.4272         estimate D2E/DX2                !
 ! A54   A(8,27,28)            111.9511         estimate D2E/DX2                !
 ! A55   A(8,27,29)            110.6861         estimate D2E/DX2                !
 ! A56   A(8,27,30)            106.0478         estimate D2E/DX2                !
 ! A57   A(28,27,29)           109.724          estimate D2E/DX2                !
 ! A58   A(28,27,30)           109.0543         estimate D2E/DX2                !
 ! A59   A(29,27,30)           109.2765         estimate D2E/DX2                !
 ! A60   A(9,31,32)            125.9749         estimate D2E/DX2                !
 ! A61   A(9,31,33)            115.4499         estimate D2E/DX2                !
 ! A62   A(32,31,33)           118.5651         estimate D2E/DX2                !
 ! A63   A(6,32,31)            121.9908         estimate D2E/DX2                !
 ! A64   A(31,33,34)           107.4307         estimate D2E/DX2                !
 ! A65   A(31,33,35)           110.4532         estimate D2E/DX2                !
 ! A66   A(31,33,36)           110.6748         estimate D2E/DX2                !
 ! A67   A(34,33,35)           107.9134         estimate D2E/DX2                !
 ! A68   A(34,33,36)           108.6473         estimate D2E/DX2                !
 ! A69   A(35,33,36)           111.5734         estimate D2E/DX2                !
 ! D1    D(10,1,2,3)          -167.5959         estimate D2E/DX2                !
 ! D2    D(10,1,2,7)            70.2817         estimate D2E/DX2                !
 ! D3    D(10,1,2,13)          -45.4639         estimate D2E/DX2                !
 ! D4    D(11,1,2,3)            70.7859         estimate D2E/DX2                !
 ! D5    D(11,1,2,7)           -51.3365         estimate D2E/DX2                !
 ! D6    D(11,1,2,13)         -167.0821         estimate D2E/DX2                !
 ! D7    D(12,1,2,3)           -46.9055         estimate D2E/DX2                !
 ! D8    D(12,1,2,7)          -169.028          estimate D2E/DX2                !
 ! D9    D(12,1,2,13)           75.2264         estimate D2E/DX2                !
 ! D10   D(2,1,10,19)         -175.5251         estimate D2E/DX2                !
 ! D11   D(11,1,10,19)         -54.8825         estimate D2E/DX2                !
 ! D12   D(12,1,10,19)          65.7486         estimate D2E/DX2                !
 ! D13   D(1,2,3,4)            176.6414         estimate D2E/DX2                !
 ! D14   D(1,2,3,9)            -60.2146         estimate D2E/DX2                !
 ! D15   D(1,2,3,14)            52.0172         estimate D2E/DX2                !
 ! D16   D(7,2,3,4)            -62.3341         estimate D2E/DX2                !
 ! D17   D(7,2,3,9)             60.8099         estimate D2E/DX2                !
 ! D18   D(7,2,3,14)           173.0416         estimate D2E/DX2                !
 ! D19   D(13,2,3,4)            54.4055         estimate D2E/DX2                !
 ! D20   D(13,2,3,9)           177.5495         estimate D2E/DX2                !
 ! D21   D(13,2,3,14)          -70.2188         estimate D2E/DX2                !
 ! D22   D(1,2,7,6)            152.6462         estimate D2E/DX2                !
 ! D23   D(3,2,7,6)             26.9066         estimate D2E/DX2                !
 ! D24   D(13,2,7,6)           -90.6379         estimate D2E/DX2                !
 ! D25   D(2,3,4,5)             35.3536         estimate D2E/DX2                !
 ! D26   D(2,3,4,8)            156.5376         estimate D2E/DX2                !
 ! D27   D(2,3,4,15)           -80.2289         estimate D2E/DX2                !
 ! D28   D(9,3,4,5)            -88.3999         estimate D2E/DX2                !
 ! D29   D(9,3,4,8)             32.7842         estimate D2E/DX2                !
 ! D30   D(9,3,4,15)           156.0177         estimate D2E/DX2                !
 ! D31   D(14,3,4,5)           159.2888         estimate D2E/DX2                !
 ! D32   D(14,3,4,8)           -79.5272         estimate D2E/DX2                !
 ! D33   D(14,3,4,15)           43.7063         estimate D2E/DX2                !
 ! D34   D(2,3,9,31)           -79.1635         estimate D2E/DX2                !
 ! D35   D(4,3,9,31)            45.1186         estimate D2E/DX2                !
 ! D36   D(14,3,9,31)          163.4527         estimate D2E/DX2                !
 ! D37   D(3,4,5,6)             19.3115         estimate D2E/DX2                !
 ! D38   D(3,4,5,16)           138.2616         estimate D2E/DX2                !
 ! D39   D(3,4,5,18)          -100.0904         estimate D2E/DX2                !
 ! D40   D(8,4,5,6)           -104.81           estimate D2E/DX2                !
 ! D41   D(8,4,5,16)            14.1401         estimate D2E/DX2                !
 ! D42   D(8,4,5,18)           135.7881         estimate D2E/DX2                !
 ! D43   D(15,4,5,6)           134.8785         estimate D2E/DX2                !
 ! D44   D(15,4,5,16)         -106.1714         estimate D2E/DX2                !
 ! D45   D(15,4,5,18)           15.4766         estimate D2E/DX2                !
 ! D46   D(3,4,8,27)            73.9557         estimate D2E/DX2                !
 ! D47   D(5,4,8,27)          -163.4847         estimate D2E/DX2                !
 ! D48   D(15,4,8,27)          -46.409          estimate D2E/DX2                !
 ! D49   D(4,5,6,7)            -58.7151         estimate D2E/DX2                !
 ! D50   D(4,5,6,17)           167.3194         estimate D2E/DX2                !
 ! D51   D(4,5,6,32)            62.6413         estimate D2E/DX2                !
 ! D52   D(16,5,6,7)          -177.1772         estimate D2E/DX2                !
 ! D53   D(16,5,6,17)           48.8573         estimate D2E/DX2                !
 ! D54   D(16,5,6,32)          -55.8208         estimate D2E/DX2                !
 ! D55   D(18,5,6,7)            58.9655         estimate D2E/DX2                !
 ! D56   D(18,5,6,17)          -74.9999         estimate D2E/DX2                !
 ! D57   D(18,5,6,32)         -179.6781         estimate D2E/DX2                !
 ! D58   D(4,5,18,23)         -165.2527         estimate D2E/DX2                !
 ! D59   D(6,5,18,23)           75.8625         estimate D2E/DX2                !
 ! D60   D(16,5,18,23)         -46.1248         estimate D2E/DX2                !
 ! D61   D(5,6,7,2)             33.2324         estimate D2E/DX2                !
 ! D62   D(17,6,7,2)           170.2069         estimate D2E/DX2                !
 ! D63   D(32,6,7,2)           -84.4823         estimate D2E/DX2                !
 ! D64   D(5,6,32,31)          -78.2388         estimate D2E/DX2                !
 ! D65   D(7,6,32,31)           48.184          estimate D2E/DX2                !
 ! D66   D(17,6,32,31)         162.1128         estimate D2E/DX2                !
 ! D67   D(4,8,27,28)          -70.8511         estimate D2E/DX2                !
 ! D68   D(4,8,27,29)           51.9092         estimate D2E/DX2                !
 ! D69   D(4,8,27,30)          170.3206         estimate D2E/DX2                !
 ! D70   D(3,9,31,32)           18.2607         estimate D2E/DX2                !
 ! D71   D(3,9,31,33)         -162.9218         estimate D2E/DX2                !
 ! D72   D(1,10,19,20)        -179.992          estimate D2E/DX2                !
 ! D73   D(1,10,19,21)         -61.0039         estimate D2E/DX2                !
 ! D74   D(1,10,19,22)          61.023          estimate D2E/DX2                !
 ! D75   D(5,18,23,24)         -73.13           estimate D2E/DX2                !
 ! D76   D(5,18,23,25)          50.0964         estimate D2E/DX2                !
 ! D77   D(5,18,23,26)         168.5329         estimate D2E/DX2                !
 ! D78   D(9,31,32,6)            3.6828         estimate D2E/DX2                !
 ! D79   D(33,31,32,6)        -175.1014         estimate D2E/DX2                !
 ! D80   D(9,31,33,34)          87.386          estimate D2E/DX2                !
 ! D81   D(9,31,33,35)         -30.0766         estimate D2E/DX2                !
 ! D82   D(9,31,33,36)        -154.1452         estimate D2E/DX2                !
 ! D83   D(32,31,33,34)        -93.7036         estimate D2E/DX2                !
 ! D84   D(32,31,33,35)        148.8338         estimate D2E/DX2                !
 ! D85   D(32,31,33,36)         24.7652         estimate D2E/DX2                !
 --------------------------------------------------------------------------------
 Trust Radius=3.00D-01 FncErr=1.00D-07 GrdErr=1.00D-06
 Number of steps in this run=    216 maximum allowed number of steps=    216.
 GradGradGradGradGradGradGradGradGradGradGradGradGradGradGradGradGradGrad

 Leave Link  103 at Tue Oct 24 12:45:25 2017, MaxMem= 13421772800 cpu:         0.3
 (Enter /share/apps//g09/l202.exe)
                          Input orientation:                          
 ---------------------------------------------------------------------
 Center     Atomic      Atomic             Coordinates (Angstroms)
 Number     Number       Type             X           Y           Z
 ---------------------------------------------------------------------
      1          6           0       -1.110050   -1.556090    2.974110
      2          6           0        0.017960   -1.116820    2.054590
      3          6           0        0.237560    0.383280    1.968120
      4          6           0        1.458260    0.739300    1.075700
      5          6           0        1.571070   -0.249670   -0.104630
      6          6           0        0.222580   -0.949440   -0.310020
      7          8           0       -0.278810   -1.644630    0.713650
      8          8           0        1.393160    2.045040    0.546340
      9          8           0       -0.981700    1.072490    1.458230
     10          8           0       -0.980530   -2.945450    3.152160
     11          1           0       -2.090200   -1.289750    2.529910
     12          1           0       -1.015830   -1.009340    3.935990
     13          1           0        0.955770   -1.589980    2.392790
     14          1           0        0.337210    0.810570    2.973500
     15          1           0        2.360470    0.593940    1.699420
     16          1           0        1.826670    0.321160   -1.015130
     17          1           0        0.095150   -1.514460   -1.238800
     18          8           0        2.562690   -1.196350    0.232780
     19          6           0       -2.050970   -3.501620    3.922370
     20          1           0       -1.852300   -4.575640    3.998810
     21          1           0       -2.084890   -3.063900    4.935030
     22          1           0       -3.023370   -3.344150    3.424690
     23          6           0        3.040630   -1.993630   -0.868250
     24          1           0        2.299200   -2.742370   -1.187450
     25          1           0        3.321590   -1.353470   -1.719630
     26          1           0        3.928600   -2.513870   -0.495280
     27          6           0        1.659760    3.086940    1.503000
     28          1           0        0.840900    3.195440    2.233070
     29          1           0        2.606750    2.896250    2.032190
     30          1           0        1.748600    4.012760    0.925320
     31          6           0       -1.268950    1.088180    0.181610
     32          8           0       -0.795810    0.301690   -0.701480
     33          6           0       -2.257780    2.111680   -0.236730
     34          1           0       -1.702740    3.038370   -0.451190
     35          1           0       -2.960190    2.320430    0.577240
     36          1           0       -2.777860    1.797200   -1.145950
 ---------------------------------------------------------------------
                    Distance matrix (angstroms):
                    1          2          3          4          5
     1  C    0.000000
     2  C    1.520158   0.000000
     3  C    2.566948   1.518552   0.000000
     4  C    3.933064   2.545166   1.553471   0.000000
     5  C    4.286464   2.797558   2.544635   1.544010   0.000000
     6  C    3.595753   2.379341   2.639373   2.509774   1.533065
     7  O    2.410079   1.471318   2.439826   2.971803   2.457143
     8  O    5.012810   3.763423   2.473523   1.410467   2.391884
     9  O    3.037071   2.479525   1.490501   2.492138   3.272197
    10  O    1.406698   2.354895   3.737130   4.882291   4.938074
    11  H    1.108578   2.167988   2.921148   4.338587   4.628981
    12  H    1.110417   2.149404   2.717147   4.166548   4.857547
    13  H    2.146321   1.103516   2.142411   2.722640   2.900368
    14  H    2.774102   2.158969   1.096948   2.205329   3.481581
    15  H    4.276912   2.922362   2.150192   1.106408   2.142295
    16  H    5.297398   3.842187   3.380667   2.163825   1.104621
    17  H    4.382106   3.318206   3.729079   3.506339   2.250417
    18  O    4.597099   3.130650   3.303463   2.382650   1.411864
    19  C    2.360003   3.668289   4.914154   6.197066   6.317522
    20  H    3.273931   4.386491   5.751704   6.910352   6.875442
    21  H    2.658761   4.063254   5.106797   6.474000   6.832577
    22  H    2.657249   4.010968   5.162266   6.502102   6.568165
    23  C    5.673034   4.295151   4.642402   3.708334   2.405019
    24  H    5.508977   4.284541   4.896700   4.236868   2.813579
    25  H    6.458458   5.021425   5.111462   3.957974   2.625056
    26  H    6.192092   4.873058   5.299584   4.376491   3.291984
    27  C    5.603012   4.546576   3.090108   2.394703   3.704768
    28  H    5.189642   4.393708   2.888332   2.784468   4.226911
    29  H    5.875810   4.775674   3.454299   2.624183   3.941503
    30  H    6.586464   5.530186   4.067407   3.289750   4.388693
    31  C    3.849087   3.166420   2.440917   2.891157   3.152378
    32  O    4.130382   3.204733   2.863787   2.903567   2.502469
    33  C    5.007925   4.566438   3.751727   4.173111   4.500391
    34  H    5.761339   5.148334   4.082564   4.196312   4.652864
    35  H    4.918883   4.781906   3.989073   4.719230   5.253825
    36  H    5.567858   5.152822   4.559535   4.898938   4.918050
                    6          7          8          9         10
     6  C    0.000000
     7  O    1.335133   0.000000
     8  O    3.327239   4.054274   0.000000
     9  O    2.943671   2.903652   2.723482   0.000000
    10  O    4.173514   2.851469   6.109803   4.360418   0.000000
    11  H    3.678310   2.589570   5.214324   2.820895   2.088039
    12  H    4.423330   3.366046   5.159670   3.236429   2.089057
    13  H    2.872811   2.084871   4.100495   3.422855   2.482579
    14  H    3.727235   3.393289   2.920625   2.025875   3.984475
    15  H    3.315184   3.598435   2.090687   3.384861   5.079372
    16  H    2.164419   3.359473   2.365984   3.816929   5.993114
    17  H    1.094586   1.992198   4.188269   3.889201   4.741872
    18  O    2.414894   2.916558   3.460163   4.383157   4.912895
    19  C    5.440200   4.109118   7.350173   5.304508   1.431220
    20  H    6.001706   4.675357   8.141619   6.254108   2.033302
    21  H    6.107856   4.805861   7.580152   5.514970   2.100540
    22  H    5.497171   4.215533   7.538833   5.248056   2.099150
    23  C    3.056691   3.693628   4.585420   5.567112   5.765361
    24  H    2.880422   3.386052   5.171676   5.684812   5.443352
    25  H    3.428426   4.355285   4.517005   5.873873   6.691560
    26  H    4.026953   4.463114   5.319501   6.386644   6.131039
    27  C    4.652407   5.173865   1.439385   3.322247   6.788268
    28  H    4.902005   5.195062   2.115058   2.903302   6.470924
    29  H    5.095051   5.539368   2.098835   4.066018   6.946105
    30  H    5.336500   6.013423   2.035162   4.047681   7.798952
    31  C    2.572597   2.954944   2.852269   1.308632   5.017721
    32  O    1.660026   2.461309   3.063970   2.300660   5.042676
    33  C    3.940560   4.350794   3.734569   2.362453   6.220169
    34  H    4.430510   5.031393   3.400936   2.833808   7.022238
    35  H    4.648581   4.788539   4.362161   2.499584   6.186983
    36  H    4.152764   4.642150   4.508068   3.245481   6.648073
                   11         12         13         14         15
    11  H    0.000000
    12  H    1.791637   0.000000
    13  H    3.063800   2.570178   0.000000
    14  H    3.240438   2.463570   2.546072   0.000000
    15  H    4.903720   4.355704   2.687648   2.400789   0.000000
    16  H    5.523062   5.862050   4.003104   4.285695   2.779952
    17  H    4.362273   5.316754   3.732937   4.817450   4.267337
    18  O    5.189886   5.153110   2.720805   4.061039   2.323158
    19  C    2.613973   2.698733   3.877431   5.019835   6.416847
    20  H    3.607123   3.663622   4.402127   5.903937   7.054019
    21  H    2.988685   2.522338   4.228598   4.972493   6.603801
    22  H    2.427344   3.121375   4.469394   5.362720   6.889909
    23  C    6.194219   6.364308   3.891524   5.470929   3.708243
    24  H    5.932597   6.343694   3.993861   5.812598   4.412339
    25  H    6.881142   7.135662   4.750267   5.967836   4.050440
    26  H    6.846619   6.807874   4.246438   5.998535   4.115121
    27  C    5.854243   5.464223   4.812578   3.015521   2.597041
    28  H    5.366227   4.901791   4.789462   2.547459   3.059686
    29  H    6.311233   5.656958   4.793957   3.222877   2.339235
    30  H    6.740008   6.475160   5.845746   4.054761   3.558363
    31  C    3.441441   4.308019   4.124468   3.232873   3.964935
    32  O    3.827533   4.824245   4.027525   3.879197   3.976410
    33  C    4.387722   5.356753   5.562694   4.328099   5.232633
    34  H    5.269697   6.008590   6.047935   4.566507   5.206730
    35  H    4.195617   5.113620   5.824283   4.346790   5.705215
    36  H    4.849132   6.066921   6.159193   5.258038   5.995532
                   16         17         18         19         20
    16  H    0.000000
    17  H    2.533316   0.000000
    18  O    2.098057   2.890587   0.000000
    19  C    7.350418   5.932311   6.341388   0.000000
    20  H    7.915369   6.371495   6.715260   1.094912   0.000000
    21  H    7.884373   6.728262   6.870145   1.103734   1.793311
    22  H    7.527907   5.900938   6.782728   1.103650   1.793763
    23  C    2.617924   3.007119   1.440954   7.151815   7.368569
    24  H    3.104544   2.523536   2.115811   6.753569   6.891526
    25  H    2.352763   3.266042   2.100600   8.081529   8.357755
    26  H    3.567317   4.030754   2.032644   7.499769   7.607006
    27  C    3.744112   5.580175   4.557995   7.939269   8.790834
    28  H    4.447924   5.898575   5.123821   7.487807   8.411947
    29  H    4.065190   6.038367   4.470927   8.136331   8.920755
    30  H    4.171253   6.161775   5.317629   8.937838   9.806806
    31  C    3.406372   3.263751   4.461296   5.972529   6.854938
    32  O    2.641242   2.093066   3.794270   6.117237   6.855454
    33  C    4.527096   4.437264   5.865188   6.989279   7.926188
    34  H    4.489765   4.957923   6.049344   7.875326   8.820318
    35  H    5.426486   5.228717   6.556569   6.775902   7.777554
    36  H    4.837097   4.385191   6.275644   7.368428   8.242470
                   21         22         23         24         25
    21  H    0.000000
    22  H    1.800114   0.000000
    23  C    7.816297   7.551512   0.000000
    24  H    7.537134   7.068502   1.101008   0.000000
    25  H    8.743003   8.407458   1.101631   1.804866   0.000000
    26  H    8.121137   8.024052   1.094645   1.785009   1.792769
    27  C    7.977096   8.184346   5.774238   6.451997   5.732736
    28  H    7.418906   7.688874   6.432997   7.006011   6.516920
    29  H    8.121660   8.519384   5.701906   6.500362   5.713779
    30  H    8.991804   9.118260   6.400231   7.099207   6.185991
    31  C    6.364003   5.765510   5.401133   5.411020   5.536192
    32  O    6.690229   5.939651   4.473766   4.368244   4.552929
    33  C    7.318717   6.614999   6.732424   6.725454   6.733174
    34  H    8.148319   7.583078   6.927808   7.069269   6.792723
    35  H    6.981941   6.340302   7.530630   7.510477   7.631115
    36  H    7.815934   6.883640   6.949988   6.810724   6.889058
                   26         27         28         29         30
    26  H    0.000000
    27  C    6.364733   0.000000
    28  H    7.040881   1.102409   0.000000
    29  H    6.115946   1.101451   1.802247   0.000000
    30  H    7.026194   1.094874   1.789453   1.791139   0.000000
    31  C    6.359833   3.783973   3.619461   4.659916   4.267538
    32  O    5.503630   4.318237   4.434433   5.077608   4.784615
    33  C    7.728768   4.396011   4.108073   5.424684   4.584272
    34  H    7.908306   3.889425   3.701355   4.975850   3.841349
    35  H    8.483878   4.773731   4.237417   5.782670   5.015760
    36  H    7.999081   5.326616   5.144733   6.348426   5.448643
                   31         32         33         34         35
    31  C    0.000000
    32  O    1.273686   0.000000
    33  C    1.483356   2.372638   0.000000
    34  H    2.095674   2.893887   1.101280   0.000000
    35  H    2.129614   3.224124   1.095218   1.776031   0.000000
    36  H    2.131181   2.522425   1.093646   1.782997   1.810082
                   36
    36  H    0.000000
 Stoichiometry    C11H19O6(1+)
 Framework group  C1[X(C11H19O6)]
 Deg. of freedom   102
 Full point group                 C1      NOp   1
 Largest Abelian subgroup         C1      NOp   1
 Largest concise Abelian subgroup C1      NOp   1
                         Standard orientation:                         
 ---------------------------------------------------------------------
 Center     Atomic      Atomic             Coordinates (Angstroms)
 Number     Number       Type             X           Y           Z
 ---------------------------------------------------------------------
      1          6           0        2.478994   -0.671105    0.576531
      2          6           0        1.208025    0.160133    0.508986
      3          6           0       -0.053308   -0.544021    0.977183
      4          6           0       -1.286374    0.400586    0.953991
      5          6           0       -1.198029    1.374739   -0.240658
      6          6           0       -0.218414    0.815681   -1.278972
      7          8           0        1.037866    0.588118   -0.888387
      8          8           0       -2.511332   -0.292579    0.862245
      9          8           0       -0.326213   -1.754680    0.151700
     10          8           0        3.559303    0.210001    0.388429
     11          1           0        2.457862   -1.464288   -0.197652
     12          1           0        2.524167   -1.168701    1.568188
     13          1           0        1.347435    1.071087    1.116007
     14          1           0        0.101618   -0.977352    1.972934
     15          1           0       -1.231343    1.016806    1.871261
     16          1           0       -2.200707    1.460335   -0.696180
     17          1           0       -0.219064    1.290455   -2.265232
     18          8           0       -0.726053    2.608939    0.256684
     19          6           0        4.817306   -0.469888    0.328699
     20          1           0        5.580019    0.301863    0.182065
     21          1           0        5.023631   -1.013090    1.267097
     22          1           0        4.847152   -1.178767   -0.516668
     23          6           0       -0.892441    3.727147   -0.636779
     24          1           0       -0.186754    3.688833   -1.481029
     25          1           0       -1.927277    3.775798   -1.011395
     26          1           0       -0.679122    4.619339   -0.039506
     27          6           0       -2.911998   -0.952365    2.077143
     28          1           0       -2.277893   -1.826191    2.299954
     29          1           0       -2.890159   -0.251056    2.926191
     30          1           0       -3.940657   -1.289662    1.913310
     31          6           0       -0.875089   -1.659447   -1.032438
     32          8           0       -0.935517   -0.606557   -1.746614
     33          6           0       -1.447481   -2.916763   -1.572685
     34          1           0       -2.483677   -2.991267   -1.207221
     35          1           0       -0.893832   -3.782796   -1.194580
     36          1           0       -1.462979   -2.895468   -2.666014
 ---------------------------------------------------------------------
 Rotational constants (GHZ):      0.5581535      0.3831587      0.3025313
 Leave Link  202 at Tue Oct 24 12:45:25 2017, MaxMem= 13421772800 cpu:         0.8
 (Enter /share/apps//g09/l301.exe)
 Standard basis: 6-311+G(d,p) (5D, 7F)
 Ernie: Thresh=  0.10000D-02 Tol=  0.10000D-05 Strict=F.
 There are   505 symmetry adapted cartesian basis functions of A   symmetry.
 There are   488 symmetry adapted basis functions of A   symmetry.
   488 basis functions,   764 primitive gaussians,   505 cartesian basis functions
    66 alpha electrons       66 beta electrons
       nuclear repulsion energy      1430.9262639198 Hartrees.
 IExCor= 1009 DFT=T Ex+Corr=PBE1PBE ExCW=0 ScaHFX=  0.250000
 ScaDFX=  0.750000  0.750000  1.000000  1.000000 ScalE2=  1.000000  1.000000
 IRadAn=      0 IRanWt=     -1 IRanGd=            0 ICorTp=0 IEmpDi=131
 NAtoms=   36 NActive=   36 NUniq=   36 SFac= 1.00D+00 NAtFMM=   60 NAOKFM=F Big=F
 Integral buffers will be    131072 words long.
 Raffenetti 2 integral format.
 Two-electron integral symmetry is turned on.
 R6Disp:  Grimme-D3 Dispersion energy=       -0.0241804747 Hartrees.
 Nuclear repulsion after empirical dispersion term =     1430.9020834451 Hartrees.
 Leave Link  301 at Tue Oct 24 12:45:25 2017, MaxMem= 13421772800 cpu:         1.3
 (Enter /share/apps//g09/l302.exe)
 NPDir=0 NMtPBC=     1 NCelOv=     1 NCel=       1 NClECP=     1 NCelD=      1
         NCelK=      1 NCelE2=     1 NClLst=     1 CellRange=     0.0.
 One-electron integrals computed using PRISM.
 NBasis=   488 RedAO= T EigKep=  1.55D-06  NBF=   488
 NBsUse=   488 1.00D-06 EigRej= -1.00D+00 NBFU=   488
 Precomputing XC quadrature grid using
 IXCGrd= 4 IRadAn=           0 IRanWt=          -1 IRanGd=           0 AccXCQ= 0.00D+00.
 Generated NRdTot=       0 NPtTot=           0 NUsed=           0 NTot=          32
 NSgBfM=   504   504   504   504   504 MxSgAt=    36 MxSgA2=    36.
 Leave Link  302 at Tue Oct 24 12:45:26 2017, MaxMem= 13421772800 cpu:        11.9
 (Enter /share/apps//g09/l303.exe)
 DipDrv:  MaxL=1.
 Leave Link  303 at Tue Oct 24 12:45:27 2017, MaxMem= 13421772800 cpu:         6.9
 (Enter /share/apps//g09/l401.exe)
 ExpMin= 4.38D-02 ExpMax= 8.59D+03 ExpMxC= 1.30D+03 IAcc=2 IRadAn=         4 AccDes= 0.00D+00
 Harris functional with IExCor= 1009 and IRadAn=       4 diagonalized for initial guess.
 HarFok:  IExCor= 1009 AccDes= 0.00D+00 IRadAn=         4 IDoV= 1 UseB2=F ITyADJ=14
 ICtDFT=  3500011 ScaDFX=  1.000000  1.000000  1.000000  1.000000
 FoFCou: FMM=F IPFlag=           0 FMFlag=      100000 FMFlg1=           0
         NFxFlg=           0 DoJE=T BraDBF=F KetDBF=T FulRan=T
         wScrn=  0.000000 ICntrl=     500 IOpCl=  0 I1Cent=   200000004 NGrid=           0
         NMat0=    1 NMatS0=      1 NMatT0=    0 NMatD0=    1 NMtDS0=    0 NMtDT0=    0
 Petite list used in FoFCou.
 Harris En= -881.102844355570    
 JPrj=0 DoOrth=F DoCkMO=F.
 Leave Link  401 at Tue Oct 24 12:45:28 2017, MaxMem= 13421772800 cpu:        23.9
 (Enter /share/apps//g09/l502.exe)
 Closed shell SCF:
 Using DIIS extrapolation, IDIIS=  1040.
 Integral symmetry usage will be decided dynamically.
 Keep R1 ints in memory in canonical form, NReq=7183787934.
 IVT=      797493 IEndB=      797493 NGot= 13421772800 MDV=  6302761722
 LenX=  6302761722 LenY=  6302506192
 Requested convergence on RMS density matrix=1.00D-08 within 128 cycles.
 Requested convergence on MAX density matrix=1.00D-06.
 Requested convergence on             energy=1.00D-06.
 No special actions if energy rises.
 FoFCou: FMM=F IPFlag=           0 FMFlag=           0 FMFlg1=           0
         NFxFlg=           0 DoJE=F BraDBF=F KetDBF=F FulRan=T
         wScrn=  0.000000 ICntrl=     600 IOpCl=  0 I1Cent=           0 NGrid=           0
         NMat0=    1 NMatS0= 119316 NMatT0=    0 NMatD0=    1 NMtDS0=    0 NMtDT0=    0
 Symmetry not used in FoFCou.

 Cycle   1  Pass 1  IDiag  1:
 E= -880.647538909477    
 DIIS: error= 1.73D-02 at cycle   1 NSaved=   1.
 NSaved= 1 IEnMin= 1 EnMin= -880.647538909477     IErMin= 1 ErrMin= 1.73D-02
 ErrMax= 1.73D-02  0.00D+00 EMaxC= 1.00D-01 BMatC= 3.72D-01 BMatP= 3.72D-01
 IDIUse=3 WtCom= 8.27D-01 WtEn= 1.73D-01
 Coeff-Com:  0.100D+01
 Coeff-En:   0.100D+01
 Coeff:      0.100D+01
 Gap=     0.124 Goal=   None    Shift=    0.000
 GapD=    0.124 DampG=1.000 DampE=0.500 DampFc=0.5000 IDamp=-1.
 Damping current iteration by 5.00D-01
 RMSDP=2.19D-02 MaxDP=3.26D+00              OVMax= 1.33D-01

 Cycle   2  Pass 1  IDiag  1:
 E= -880.771665247449     Delta-E=       -0.124126337972 Rises=F Damp=T
 DIIS: error= 3.88D-03 at cycle   2 NSaved=   2.
 NSaved= 2 IEnMin= 2 EnMin= -880.771665247449     IErMin= 2 ErrMin= 3.88D-03
 ErrMax= 3.88D-03  0.00D+00 EMaxC= 1.00D-01 BMatC= 2.97D-02 BMatP= 3.72D-01
 IDIUse=3 WtCom= 9.61D-01 WtEn= 3.88D-02
 Coeff-Com: -0.325D-02 0.100D+01
 Coeff-En:   0.596D-01 0.940D+00
 Coeff:     -0.812D-03 0.100D+01
 Gap=     0.224 Goal=   None    Shift=    0.000
 RMSDP=8.55D-03 MaxDP=1.39D+00 DE=-1.24D-01 OVMax= 9.42D-02

 Cycle   3  Pass 1  IDiag  1:
 E= -880.906173856531     Delta-E=       -0.134508609082 Rises=F Damp=F
 DIIS: error= 5.65D-03 at cycle   3 NSaved=   3.
 NSaved= 3 IEnMin= 3 EnMin= -880.906173856531     IErMin= 2 ErrMin= 3.88D-03
 ErrMax= 5.65D-03  0.00D+00 EMaxC= 1.00D-01 BMatC= 2.23D-02 BMatP= 2.97D-02
 IDIUse=3 WtCom= 9.43D-01 WtEn= 5.65D-02
 Coeff-Com: -0.898D-01 0.486D+00 0.603D+00
 Coeff-En:   0.000D+00 0.000D+00 0.100D+01
 Coeff:     -0.847D-01 0.459D+00 0.626D+00
 Gap=     0.186 Goal=   None    Shift=    0.000
 RMSDP=2.46D-03 MaxDP=3.29D-01 DE=-1.35D-01 OVMax= 2.24D-02

 Cycle   4  Pass 1  IDiag  1:
 E= -880.919875832772     Delta-E=       -0.013701976241 Rises=F Damp=F
 DIIS: error= 2.69D-03 at cycle   4 NSaved=   4.
 NSaved= 4 IEnMin= 4 EnMin= -880.919875832772     IErMin= 4 ErrMin= 2.69D-03
 ErrMax= 2.69D-03  0.00D+00 EMaxC= 1.00D-01 BMatC= 4.18D-03 BMatP= 2.23D-02
 IDIUse=3 WtCom= 9.73D-01 WtEn= 2.69D-02
 Coeff-Com: -0.456D-01 0.148D+00 0.352D+00 0.546D+00
 Coeff-En:   0.000D+00 0.000D+00 0.131D+00 0.869D+00
 Coeff:     -0.444D-01 0.144D+00 0.346D+00 0.554D+00
 Gap=     0.191 Goal=   None    Shift=    0.000
 RMSDP=1.46D-03 MaxDP=2.38D-01 DE=-1.37D-02 OVMax= 6.60D-03

 Cycle   5  Pass 1  IDiag  1:
 E= -880.922914267931     Delta-E=       -0.003038435159 Rises=F Damp=F
 DIIS: error= 4.06D-04 at cycle   5 NSaved=   5.
 NSaved= 5 IEnMin= 5 EnMin= -880.922914267931     IErMin= 5 ErrMin= 4.06D-04
 ErrMax= 4.06D-04  0.00D+00 EMaxC= 1.00D-01 BMatC= 1.35D-04 BMatP= 4.18D-03
 IDIUse=3 WtCom= 9.96D-01 WtEn= 4.06D-03
 Coeff-Com: -0.136D-01 0.320D-01 0.110D+00 0.241D+00 0.631D+00
 Coeff-En:   0.000D+00 0.000D+00 0.000D+00 0.000D+00 0.100D+01
 Coeff:     -0.136D-01 0.319D-01 0.109D+00 0.240D+00 0.633D+00
 Gap=     0.192 Goal=   None    Shift=    0.000
 RMSDP=1.54D-04 MaxDP=2.03D-02 DE=-3.04D-03 OVMax= 2.08D-03

 Cycle   6  Pass 1  IDiag  1:
 E= -880.922994747265     Delta-E=       -0.000080479334 Rises=F Damp=F
 DIIS: error= 2.53D-04 at cycle   6 NSaved=   6.
 NSaved= 6 IEnMin= 6 EnMin= -880.922994747265     IErMin= 6 ErrMin= 2.53D-04
 ErrMax= 2.53D-04  0.00D+00 EMaxC= 1.00D-01 BMatC= 2.81D-05 BMatP= 1.35D-04
 IDIUse=3 WtCom= 9.97D-01 WtEn= 2.53D-03
 Coeff-Com: -0.540D-02 0.953D-02 0.439D-01 0.112D+00 0.394D+00 0.446D+00
 Coeff-En:   0.000D+00 0.000D+00 0.000D+00 0.000D+00 0.123D+00 0.877D+00
 Coeff:     -0.538D-02 0.950D-02 0.438D-01 0.112D+00 0.393D+00 0.448D+00
 Gap=     0.192 Goal=   None    Shift=    0.000
 RMSDP=7.73D-05 MaxDP=1.47D-02 DE=-8.05D-05 OVMax= 8.99D-04

 Cycle   7  Pass 1  IDiag  1:
 E= -880.923014719805     Delta-E=       -0.000019972540 Rises=F Damp=F
 DIIS: error= 5.04D-05 at cycle   7 NSaved=   7.
 NSaved= 7 IEnMin= 7 EnMin= -880.923014719805     IErMin= 7 ErrMin= 5.04D-05
 ErrMax= 5.04D-05  0.00D+00 EMaxC= 1.00D-01 BMatC= 1.28D-06 BMatP= 2.81D-05
 IDIUse=1 WtCom= 1.00D+00 WtEn= 0.00D+00
 Coeff-Com: -0.190D-02 0.283D-02 0.154D-01 0.432D-01 0.172D+00 0.240D+00
 Coeff-Com:  0.529D+00
 Coeff:     -0.190D-02 0.283D-02 0.154D-01 0.432D-01 0.172D+00 0.240D+00
 Coeff:      0.529D+00
 Gap=     0.192 Goal=   None    Shift=    0.000
 RMSDP=1.40D-05 MaxDP=1.74D-03 DE=-2.00D-05 OVMax= 2.11D-04

 Cycle   8  Pass 1  IDiag  1:
 E= -880.923015546844     Delta-E=       -0.000000827039 Rises=F Damp=F
 DIIS: error= 1.95D-05 at cycle   8 NSaved=   8.
 NSaved= 8 IEnMin= 8 EnMin= -880.923015546844     IErMin= 8 ErrMin= 1.95D-05
 ErrMax= 1.95D-05  0.00D+00 EMaxC= 1.00D-01 BMatC= 2.11D-07 BMatP= 1.28D-06
 IDIUse=1 WtCom= 1.00D+00 WtEn= 0.00D+00
 Coeff-Com: -0.844D-04-0.126D-03 0.546D-03 0.410D-02 0.249D-01 0.496D-01
 Coeff-Com:  0.305D+00 0.616D+00
 Coeff:     -0.844D-04-0.126D-03 0.546D-03 0.410D-02 0.249D-01 0.496D-01
 Coeff:      0.305D+00 0.616D+00
 Gap=     0.192 Goal=   None    Shift=    0.000
 RMSDP=1.06D-05 MaxDP=1.96D-03 DE=-8.27D-07 OVMax= 8.03D-05

 Cycle   9  Pass 1  IDiag  1:
 E= -880.923015677799     Delta-E=       -0.000000130954 Rises=F Damp=F
 DIIS: error= 7.53D-06 at cycle   9 NSaved=   9.
 NSaved= 9 IEnMin= 9 EnMin= -880.923015677799     IErMin= 9 ErrMin= 7.53D-06
 ErrMax= 7.53D-06  0.00D+00 EMaxC= 1.00D-01 BMatC= 3.63D-08 BMatP= 2.11D-07
 IDIUse=1 WtCom= 1.00D+00 WtEn= 0.00D+00
 Coeff-Com:  0.814D-04-0.262D-03-0.872D-03-0.969D-03 0.130D-03 0.732D-02
 Coeff-Com:  0.129D+00 0.373D+00 0.493D+00
 Coeff:      0.814D-04-0.262D-03-0.872D-03-0.969D-03 0.130D-03 0.732D-02
 Coeff:      0.129D+00 0.373D+00 0.493D+00
 Gap=     0.192 Goal=   None    Shift=    0.000
 RMSDP=2.69D-06 MaxDP=3.96D-04 DE=-1.31D-07 OVMax= 3.08D-05

 Cycle  10  Pass 1  IDiag  1:
 E= -880.923015704648     Delta-E=       -0.000000026849 Rises=F Damp=F
 DIIS: error= 9.98D-07 at cycle  10 NSaved=  10.
 NSaved=10 IEnMin=10 EnMin= -880.923015704648     IErMin=10 ErrMin= 9.98D-07
 ErrMax= 9.98D-07  0.00D+00 EMaxC= 1.00D-01 BMatC= 9.17D-10 BMatP= 3.63D-08
 IDIUse=1 WtCom= 1.00D+00 WtEn= 0.00D+00
 Coeff-Com:  0.450D-04-0.989D-04-0.478D-03-0.914D-03-0.297D-02-0.255D-02
 Coeff-Com:  0.223D-01 0.898D-01 0.184D+00 0.710D+00
 Coeff:      0.450D-04-0.989D-04-0.478D-03-0.914D-03-0.297D-02-0.255D-02
 Coeff:      0.223D-01 0.898D-01 0.184D+00 0.710D+00
 Gap=     0.192 Goal=   None    Shift=    0.000
 RMSDP=7.65D-07 MaxDP=1.42D-04 DE=-2.68D-08 OVMax= 5.42D-06

 Cycle  11  Pass 1  IDiag  1:
 E= -880.923015705385     Delta-E=       -0.000000000737 Rises=F Damp=F
 DIIS: error= 2.93D-07 at cycle  11 NSaved=  11.
 NSaved=11 IEnMin=11 EnMin= -880.923015705385     IErMin=11 ErrMin= 2.93D-07
 ErrMax= 2.93D-07  0.00D+00 EMaxC= 1.00D-01 BMatC= 7.10D-11 BMatP= 9.17D-10
 IDIUse=1 WtCom= 1.00D+00 WtEn= 0.00D+00
 Coeff-Com:  0.139D-04-0.276D-04-0.158D-03-0.328D-03-0.122D-02-0.138D-02
 Coeff-Com:  0.313D-02 0.183D-01 0.496D-01 0.297D+00 0.635D+00
 Coeff:      0.139D-04-0.276D-04-0.158D-03-0.328D-03-0.122D-02-0.138D-02
 Coeff:      0.313D-02 0.183D-01 0.496D-01 0.297D+00 0.635D+00
 Gap=     0.192 Goal=   None    Shift=    0.000
 RMSDP=1.26D-07 MaxDP=1.42D-05 DE=-7.37D-10 OVMax= 1.37D-06

 Cycle  12  Pass 1  IDiag  1:
 E= -880.923015705418     Delta-E=       -0.000000000033 Rises=F Damp=F
 DIIS: error= 9.79D-08 at cycle  12 NSaved=  12.
 NSaved=12 IEnMin=12 EnMin= -880.923015705418     IErMin=12 ErrMin= 9.79D-08
 ErrMax= 9.79D-08  0.00D+00 EMaxC= 1.00D-01 BMatC= 1.08D-11 BMatP= 7.10D-11
 IDIUse=1 WtCom= 1.00D+00 WtEn= 0.00D+00
 Coeff-Com:  0.620D-06-0.432D-07-0.164D-04-0.419D-04-0.203D-03-0.329D-03
 Coeff-Com: -0.123D-02-0.279D-02 0.860D-03 0.563D-01 0.316D+00 0.631D+00
 Coeff:      0.620D-06-0.432D-07-0.164D-04-0.419D-04-0.203D-03-0.329D-03
 Coeff:     -0.123D-02-0.279D-02 0.860D-03 0.563D-01 0.316D+00 0.631D+00
 Gap=     0.192 Goal=   None    Shift=    0.000
 RMSDP=8.95D-08 MaxDP=1.44D-05 DE=-3.32D-11 OVMax= 8.11D-07

 Cycle  13  Pass 1  IDiag  1:
 E= -880.923015705436     Delta-E=       -0.000000000018 Rises=F Damp=F
 DIIS: error= 2.54D-08 at cycle  13 NSaved=  13.
 NSaved=13 IEnMin=13 EnMin= -880.923015705436     IErMin=13 ErrMin= 2.54D-08
 ErrMax= 2.54D-08  0.00D+00 EMaxC= 1.00D-01 BMatC= 6.91D-13 BMatP= 1.08D-11
 IDIUse=1 WtCom= 1.00D+00 WtEn= 0.00D+00
 Coeff-Com: -0.446D-06 0.142D-05 0.113D-05-0.845D-06-0.191D-04-0.593D-04
 Coeff-Com: -0.685D-03-0.224D-02-0.203D-02 0.675D-02 0.994D-01 0.284D+00
 Coeff-Com:  0.615D+00
 Coeff:     -0.446D-06 0.142D-05 0.113D-05-0.845D-06-0.191D-04-0.593D-04
 Coeff:     -0.685D-03-0.224D-02-0.203D-02 0.675D-02 0.994D-01 0.284D+00
 Coeff:      0.615D+00
 Gap=     0.192 Goal=   None    Shift=    0.000
 RMSDP=1.19D-08 MaxDP=1.30D-06 DE=-1.77D-11 OVMax= 1.06D-07

 Cycle  14  Pass 1  IDiag  1:
 E= -880.923015705454     Delta-E=       -0.000000000018 Rises=F Damp=F
 DIIS: error= 9.96D-09 at cycle  14 NSaved=  14.
 NSaved=14 IEnMin=14 EnMin= -880.923015705454     IErMin=14 ErrMin= 9.96D-09
 ErrMax= 9.96D-09  0.00D+00 EMaxC= 1.00D-01 BMatC= 1.13D-13 BMatP= 6.91D-13
 IDIUse=1 WtCom= 1.00D+00 WtEn= 0.00D+00
 Coeff-Com: -0.309D-06 0.760D-06 0.255D-05 0.427D-05 0.136D-04 0.752D-05
 Coeff-Com: -0.241D-03-0.934D-03-0.121D-02-0.381D-02 0.146D-01 0.773D-01
 Coeff-Com:  0.328D+00 0.586D+00
 Coeff:     -0.309D-06 0.760D-06 0.255D-05 0.427D-05 0.136D-04 0.752D-05
 Coeff:     -0.241D-03-0.934D-03-0.121D-02-0.381D-02 0.146D-01 0.773D-01
 Coeff:      0.328D+00 0.586D+00
 Gap=     0.192 Goal=   None    Shift=    0.000
 RMSDP=1.38D-08 MaxDP=2.12D-06 DE=-1.77D-11 OVMax= 5.38D-08

 Cycle  15  Pass 1  IDiag  1:
 E= -880.923015705450     Delta-E=        0.000000000003 Rises=F Damp=F
 DIIS: error= 1.44D-09 at cycle  15 NSaved=  15.
 NSaved=15 IEnMin=14 EnMin= -880.923015705454     IErMin=15 ErrMin= 1.44D-09
 ErrMax= 1.44D-09  0.00D+00 EMaxC= 1.00D-01 BMatC= 3.42D-15 BMatP= 1.13D-13
 IDIUse=1 WtCom= 1.00D+00 WtEn= 0.00D+00
 Coeff-Com: -0.664D-07 0.150D-06 0.768D-06 0.143D-05 0.583D-05 0.687D-05
 Coeff-Com: -0.324D-04-0.146D-03-0.223D-03-0.175D-02-0.218D-02 0.499D-02
 Coeff-Com:  0.675D-01 0.206D+00 0.726D+00
 Coeff:     -0.664D-07 0.150D-06 0.768D-06 0.143D-05 0.583D-05 0.687D-05
 Coeff:     -0.324D-04-0.146D-03-0.223D-03-0.175D-02-0.218D-02 0.499D-02
 Coeff:      0.675D-01 0.206D+00 0.726D+00
 Gap=     0.192 Goal=   None    Shift=    0.000
 RMSDP=1.73D-08 MaxDP=2.35D-06 DE= 3.18D-12 OVMax= 1.75D-08

 Cycle  16  Pass 1  IDiag  1:
 E= -880.923015705416     Delta-E=        0.000000000034 Rises=F Damp=F
 DIIS: error= 6.68D-10 at cycle  16 NSaved=  16.
 NSaved=16 IEnMin=14 EnMin= -880.923015705454     IErMin=16 ErrMin= 6.68D-10
 ErrMax= 6.68D-10  0.00D+00 EMaxC= 1.00D-01 BMatC= 2.89D-16 BMatP= 3.42D-15
 IDIUse=1 WtCom= 1.00D+00 WtEn= 0.00D+00
 Large coefficients: NSaved= 16 BigCof=    0.00 CofMax=   10.00 Det=-2.31D-15
 Inversion failed.  Reducing to 15 matrices.
 Coeff-Com: -0.225D-08 0.929D-07 0.176D-06 0.102D-05 0.192D-05 0.193D-05
 Coeff-Com:  0.922D-06-0.683D-05-0.440D-03-0.164D-02-0.259D-02 0.805D-02
 Coeff-Com:  0.469D-01 0.287D+00 0.662D+00
 Coeff:     -0.225D-08 0.929D-07 0.176D-06 0.102D-05 0.192D-05 0.193D-05
 Coeff:      0.922D-06-0.683D-05-0.440D-03-0.164D-02-0.259D-02 0.805D-02
 Coeff:      0.469D-01 0.287D+00 0.662D+00
 Gap=     0.192 Goal=   None    Shift=    0.000
 RMSDP=3.64D-08 MaxDP=6.27D-06 DE= 3.41D-11 OVMax= 3.82D-09

 Cycle  17  Pass 1  IDiag  1:
 E= -880.923015705415     Delta-E=        0.000000000001 Rises=F Damp=F
 DIIS: error= 3.26D-10 at cycle  17 NSaved=  16.
 NSaved=16 IEnMin=13 EnMin= -880.923015705454     IErMin=16 ErrMin= 3.26D-10
 ErrMax= 3.26D-10  0.00D+00 EMaxC= 1.00D-01 BMatC= 5.48D-17 BMatP= 2.89D-16
 IDIUse=1 WtCom= 1.00D+00 WtEn= 0.00D+00
 Large coefficients: NSaved= 16 BigCof=    0.00 CofMax=   10.00 Det=-4.35D-16
 Inversion failed.  Reducing to 15 matrices.
 Coeff-Com:  0.236D-07 0.549D-07 0.188D-06 0.504D-06 0.310D-05 0.995D-05
 Coeff-Com:  0.915D-05-0.558D-04-0.538D-03-0.165D-02-0.329D-02-0.477D-03
 Coeff-Com:  0.547D-01 0.331D+00 0.621D+00
 Coeff:      0.236D-07 0.549D-07 0.188D-06 0.504D-06 0.310D-05 0.995D-05
 Coeff:      0.915D-05-0.558D-04-0.538D-03-0.165D-02-0.329D-02-0.477D-03
 Coeff:      0.547D-01 0.331D+00 0.621D+00
 Gap=     0.192 Goal=   None    Shift=    0.000
 RMSDP=1.33D-08 MaxDP=2.55D-06 DE= 9.09D-13 OVMax= 1.31D-09

 Cycle  18  Pass 1  IDiag  1:
 E= -880.923015705426     Delta-E=       -0.000000000011 Rises=F Damp=F
 DIIS: error= 9.38D-11 at cycle  18 NSaved=  16.
 NSaved=16 IEnMin=12 EnMin= -880.923015705454     IErMin=16 ErrMin= 9.38D-11
 ErrMax= 9.38D-11  0.00D+00 EMaxC= 1.00D-01 BMatC= 3.75D-18 BMatP= 5.48D-17
 IDIUse=1 WtCom= 1.00D+00 WtEn= 0.00D+00
 Large coefficients: NSaved= 16 BigCof=    0.00 CofMax=   10.00 Det=-3.40D-17
 Inversion failed.  Reducing to 15 matrices.
 Coeff-Com:  0.439D-08-0.254D-07 0.528D-07 0.129D-05 0.460D-05 0.603D-05
 Coeff-Com:  0.148D-04-0.945D-04-0.486D-03-0.192D-02-0.319D-02 0.583D-02
 Coeff-Com:  0.104D+00 0.271D+00 0.625D+00
 Coeff:      0.439D-08-0.254D-07 0.528D-07 0.129D-05 0.460D-05 0.603D-05
 Coeff:      0.148D-04-0.945D-04-0.486D-03-0.192D-02-0.319D-02 0.583D-02
 Coeff:      0.104D+00 0.271D+00 0.625D+00
 Gap=     0.192 Goal=   None    Shift=    0.000
 RMSDP=5.98D-09 MaxDP=1.34D-06 DE=-1.09D-11 OVMax= 4.07D-10

 Cycle  19  Pass 1  IDiag  1:
 E= -880.923015705441     Delta-E=       -0.000000000015 Rises=F Damp=F
 DIIS: error= 3.86D-10 at cycle  19 NSaved=  16.
 NSaved=16 IEnMin=11 EnMin= -880.923015705454     IErMin=15 ErrMin= 9.38D-11
 ErrMax= 3.86D-10  0.00D+00 EMaxC= 1.00D-01 BMatC= 5.60D-18 BMatP= 3.75D-18
 IDIUse=1 WtCom= 1.00D+00 WtEn= 0.00D+00
 Large coefficients: NSaved= 16 BigCof=    0.00 CofMax=   10.00 Det=-9.14D-18
 Inversion failed.  Reducing to 15 matrices.
 Coeff-Com: -0.363D-07 0.137D-07 0.764D-06 0.290D-05 0.383D-05 0.775D-05
 Coeff-Com: -0.753D-04-0.366D-03-0.141D-02-0.220D-02 0.549D-02 0.815D-01
 Coeff-Com:  0.202D+00 0.513D+00 0.202D+00
 Coeff:     -0.363D-07 0.137D-07 0.764D-06 0.290D-05 0.383D-05 0.775D-05
 Coeff:     -0.753D-04-0.366D-03-0.141D-02-0.220D-02 0.549D-02 0.815D-01
 Coeff:      0.202D+00 0.513D+00 0.202D+00
 Gap=     0.192 Goal=   None    Shift=    0.000
 RMSDP=6.73D-09 MaxDP=1.07D-06 DE=-1.46D-11 OVMax= 1.65D-10

 Cycle  20  Pass 1  IDiag  1:
 E= -880.923015705437     Delta-E=        0.000000000004 Rises=F Damp=F
 DIIS: error= 8.70D-11 at cycle  20 NSaved=  16.
 NSaved=16 IEnMin=10 EnMin= -880.923015705454     IErMin=16 ErrMin= 8.70D-11
 ErrMax= 8.70D-11  0.00D+00 EMaxC= 1.00D-01 BMatC= 8.73D-19 BMatP= 3.75D-18
 IDIUse=1 WtCom= 1.00D+00 WtEn= 0.00D+00
 Large coefficients: NSaved= 16 BigCof=    0.00 CofMax=   10.00 Det=-4.17D-18
 Inversion failed.  Reducing to 15 matrices.
 Coeff-Com:  0.313D-07 0.325D-06 0.997D-06 0.107D-05-0.180D-05-0.379D-04
 Coeff-Com: -0.140D-03-0.507D-03-0.745D-03 0.133D-02 0.249D-01 0.596D-01
 Coeff-Com:  0.234D+00 0.149D+00 0.533D+00
 Coeff:      0.313D-07 0.325D-06 0.997D-06 0.107D-05-0.180D-05-0.379D-04
 Coeff:     -0.140D-03-0.507D-03-0.745D-03 0.133D-02 0.249D-01 0.596D-01
 Coeff:      0.234D+00 0.149D+00 0.533D+00
 Gap=     0.192 Goal=   None    Shift=    0.000
 RMSDP=1.81D-09 MaxDP=3.07D-07 DE= 4.09D-12 OVMax= 1.35D-10

 SCF Done:  E(RPBE1PBE) =  -880.923015705     A.U. after   20 cycles
            NFock= 20  Conv=0.18D-08     -V/T= 2.0043
 KE= 8.771293996906D+02 PE=-4.904592985924D+03 EE= 1.715638487083D+03
 Leave Link  502 at Tue Oct 24 12:50:32 2017, MaxMem= 13421772800 cpu:      1239.3
 (Enter /share/apps//g09/l601.exe)
 Copying SCF densities to generalized density rwf, IOpCl= 0 IROHF=0.

 **********************************************************************

            Population analysis using the SCF density.

 **********************************************************************

 Orbital symmetries:
       Occupied  (A) (A) (A) (A) (A) (A) (A) (A) (A) (A) (A) (A)
                 (A) (A) (A) (A) (A) (A) (A) (A) (A) (A) (A) (A)
                 (A) (A) (A) (A) (A) (A) (A) (A) (A) (A) (A) (A)
                 (A) (A) (A) (A) (A) (A) (A) (A) (A) (A) (A) (A)
                 (A) (A) (A) (A) (A) (A) (A) (A) (A) (A) (A) (A)
                 (A) (A) (A) (A) (A) (A)
       Virtual   (A) (A) (A) (A) (A) (A) (A) (A) (A) (A) (A) (A)
                 (A) (A) (A) (A) (A) (A) (A) (A) (A) (A) (A) (A)
                 (A) (A) (A) (A) (A) (A) (A) (A) (A) (A) (A) (A)
                 (A) (A) (A) (A) (A) (A) (A) (A) (A) (A) (A) (A)
                 (A) (A) (A) (A) (A) (A) (A) (A) (A) (A) (A) (A)
                 (A) (A) (A) (A) (A) (A) (A) (A) (A) (A) (A) (A)
                 (A) (A) (A) (A) (A) (A) (A) (A) (A) (A) (A) (A)
                 (A) (A) (A) (A) (A) (A) (A) (A) (A) (A) (A) (A)
                 (A) (A) (A) (A) (A) (A) (A) (A) (A) (A) (A) (A)
                 (A) (A) (A) (A) (A) (A) (A) (A) (A) (A) (A) (A)
                 (A) (A) (A) (A) (A) (A) (A) (A) (A) (A) (A) (A)
                 (A) (A) (A) (A) (A) (A) (A) (A) (A) (A) (A) (A)
                 (A) (A) (A) (A) (A) (A) (A) (A) (A) (A) (A) (A)
                 (A) (A) (A) (A) (A) (A) (A) (A) (A) (A) (A) (A)
                 (A) (A) (A) (A) (A) (A) (A) (A) (A) (A) (A) (A)
                 (A) (A) (A) (A) (A) (A) (A) (A) (A) (A) (A) (A)
                 (A) (A) (A) (A) (A) (A) (A) (A) (A) (A) (A) (A)
                 (A) (A) (A) (A) (A) (A) (A) (A) (A) (A) (A) (A)
                 (A) (A) (A) (A) (A) (A) (A) (A) (A) (A) (A) (A)
                 (A) (A) (A) (A) (A) (A) (A) (A) (A) (A) (A) (A)
                 (A) (A) (A) (A) (A) (A) (A) (A) (A) (A) (A) (A)
                 (A) (A) (A) (A) (A) (A) (A) (A) (A) (A) (A) (A)
                 (A) (A) (A) (A) (A) (A) (A) (A) (A) (A) (A) (A)
                 (A) (A) (A) (A) (A) (A) (A) (A) (A) (A) (A) (A)
                 (A) (A) (A) (A) (A) (A) (A) (A) (A) (A) (A) (A)
                 (A) (A) (A) (A) (A) (A) (A) (A) (A) (A) (A) (A)
                 (A) (A) (A) (A) (A) (A) (A) (A) (A) (A) (A) (A)
                 (A) (A) (A) (A) (A) (A) (A) (A) (A) (A) (A) (A)
                 (A) (A) (A) (A) (A) (A) (A) (A) (A) (A) (A) (A)
                 (A) (A) (A) (A) (A) (A) (A) (A) (A) (A) (A) (A)
                 (A) (A) (A) (A) (A) (A) (A) (A) (A) (A) (A) (A)
                 (A) (A) (A) (A) (A) (A) (A) (A) (A) (A) (A) (A)
                 (A) (A) (A) (A) (A) (A) (A) (A) (A) (A) (A) (A)
                 (A) (A) (A) (A) (A) (A) (A) (A) (A) (A) (A) (A)
                 (A) (A) (A) (A) (A) (A) (A) (A) (A) (A) (A) (A)
                 (A) (A)
 The electronic state is 1-A.
 Alpha  occ. eigenvalues --  -19.45197 -19.43820 -19.40830 -19.36724 -19.35957
 Alpha  occ. eigenvalues --  -19.32776 -10.57092 -10.51325 -10.47076 -10.44849
 Alpha  occ. eigenvalues --  -10.44702 -10.44295 -10.40880 -10.39808 -10.38990
 Alpha  occ. eigenvalues --  -10.38899 -10.36471  -1.34971  -1.28090  -1.26078
 Alpha  occ. eigenvalues --   -1.22399  -1.20936  -1.18497  -1.01293  -0.97833
 Alpha  occ. eigenvalues --   -0.94980  -0.89140  -0.87930  -0.85465  -0.82306
 Alpha  occ. eigenvalues --   -0.80961  -0.78436  -0.77003  -0.76534  -0.72522
 Alpha  occ. eigenvalues --   -0.70987  -0.68043  -0.67360  -0.66698  -0.66089
 Alpha  occ. eigenvalues --   -0.64019  -0.63229  -0.62702  -0.61479  -0.61146
 Alpha  occ. eigenvalues --   -0.60175  -0.59448  -0.58262  -0.58020  -0.57609
 Alpha  occ. eigenvalues --   -0.56981  -0.56232  -0.55758  -0.54494  -0.54120
 Alpha  occ. eigenvalues --   -0.52153  -0.51976  -0.51688  -0.49349  -0.48647
 Alpha  occ. eigenvalues --   -0.47769  -0.47134  -0.45443  -0.43198  -0.42126
 Alpha  occ. eigenvalues --   -0.39216
 Alpha virt. eigenvalues --   -0.20005  -0.13324  -0.12142  -0.09931  -0.09424
 Alpha virt. eigenvalues --   -0.08742  -0.08091  -0.07258  -0.06727  -0.06490
 Alpha virt. eigenvalues --   -0.06386  -0.05983  -0.05875  -0.04887  -0.04616
 Alpha virt. eigenvalues --   -0.03985  -0.03621  -0.03043  -0.02821  -0.02294
 Alpha virt. eigenvalues --   -0.02040  -0.01718  -0.01188  -0.00953  -0.00537
 Alpha virt. eigenvalues --   -0.00076   0.00096   0.00180   0.00854   0.01175
 Alpha virt. eigenvalues --    0.01818   0.02500   0.02718   0.03210   0.03544
 Alpha virt. eigenvalues --    0.03917   0.04231   0.04509   0.05007   0.05312
 Alpha virt. eigenvalues --    0.05547   0.05855   0.06182   0.06996   0.07165
 Alpha virt. eigenvalues --    0.07728   0.07940   0.08335   0.08735   0.08998
 Alpha virt. eigenvalues --    0.09167   0.09698   0.10064   0.10301   0.10397
 Alpha virt. eigenvalues --    0.11176   0.11575   0.12063   0.12173   0.12389
 Alpha virt. eigenvalues --    0.12640   0.13104   0.13528   0.13671   0.14175
 Alpha virt. eigenvalues --    0.14613   0.14894   0.15424   0.16116   0.16675
 Alpha virt. eigenvalues --    0.16801   0.17593   0.17637   0.18014   0.18110
 Alpha virt. eigenvalues --    0.19288   0.19691   0.20162   0.20520   0.20902
 Alpha virt. eigenvalues --    0.21439   0.21668   0.22547   0.22957   0.23271
 Alpha virt. eigenvalues --    0.23412   0.24556   0.24918   0.25063   0.25626
 Alpha virt. eigenvalues --    0.26500   0.26658   0.27591   0.28165   0.28871
 Alpha virt. eigenvalues --    0.29068   0.29444   0.29897   0.30511   0.30896
 Alpha virt. eigenvalues --    0.31662   0.32807   0.33568   0.34071   0.34426
 Alpha virt. eigenvalues --    0.34618   0.35764   0.36014   0.36739   0.37682
 Alpha virt. eigenvalues --    0.38513   0.39359   0.40342   0.41196   0.41654
 Alpha virt. eigenvalues --    0.43420   0.43876   0.44248   0.45336   0.45865
 Alpha virt. eigenvalues --    0.46341   0.47241   0.47696   0.48427   0.49536
 Alpha virt. eigenvalues --    0.50001   0.50832   0.51050   0.51873   0.52601
 Alpha virt. eigenvalues --    0.54243   0.54863   0.55430   0.56239   0.56697
 Alpha virt. eigenvalues --    0.56941   0.57444   0.57646   0.58187   0.59124
 Alpha virt. eigenvalues --    0.59278   0.60398   0.60754   0.61133   0.61525
 Alpha virt. eigenvalues --    0.61791   0.63055   0.63541   0.64102   0.64738
 Alpha virt. eigenvalues --    0.65814   0.66756   0.67401   0.68652   0.69551
 Alpha virt. eigenvalues --    0.70359   0.71743   0.76279   0.78150   0.81247
 Alpha virt. eigenvalues --    0.81441   0.83496   0.86239   0.87605   0.88477
 Alpha virt. eigenvalues --    0.91201   0.91548   0.94077   0.94584   0.95619
 Alpha virt. eigenvalues --    0.96829   0.97259   0.98381   1.00231   1.01644
 Alpha virt. eigenvalues --    1.02590   1.04068   1.05181   1.05898   1.08018
 Alpha virt. eigenvalues --    1.08621   1.10160   1.10660   1.11519   1.13118
 Alpha virt. eigenvalues --    1.13808   1.15168   1.17205   1.17779   1.19436
 Alpha virt. eigenvalues --    1.21307   1.21679   1.23078   1.24770   1.25133
 Alpha virt. eigenvalues --    1.26272   1.28011   1.28472   1.29062   1.30425
 Alpha virt. eigenvalues --    1.31476   1.32444   1.32565   1.33670   1.34421
 Alpha virt. eigenvalues --    1.34848   1.35564   1.36774   1.39467   1.40985
 Alpha virt. eigenvalues --    1.41499   1.42807   1.44200   1.44752   1.44823
 Alpha virt. eigenvalues --    1.45175   1.45729   1.46067   1.46606   1.46960
 Alpha virt. eigenvalues --    1.47096   1.47855   1.49154   1.49799   1.50521
 Alpha virt. eigenvalues --    1.51032   1.52252   1.52713   1.54360   1.54683
 Alpha virt. eigenvalues --    1.56108   1.56829   1.57145   1.58824   1.59120
 Alpha virt. eigenvalues --    1.59849   1.60926   1.61210   1.61948   1.62537
 Alpha virt. eigenvalues --    1.64391   1.65349   1.66114   1.67251   1.67633
 Alpha virt. eigenvalues --    1.69270   1.70898   1.71678   1.73162   1.74251
 Alpha virt. eigenvalues --    1.75759   1.78248   1.78698   1.80992   1.82370
 Alpha virt. eigenvalues --    1.83781   1.84891   1.85674   1.87204   1.87775
 Alpha virt. eigenvalues --    1.89371   1.90905   1.91473   1.93742   1.94630
 Alpha virt. eigenvalues --    1.95869   1.98539   2.00559   2.01608   2.02547
 Alpha virt. eigenvalues --    2.03407   2.04813   2.06680   2.07136   2.07604
 Alpha virt. eigenvalues --    2.08608   2.09993   2.10475   2.12061   2.13100
 Alpha virt. eigenvalues --    2.13820   2.16969   2.18335   2.21652   2.22561
 Alpha virt. eigenvalues --    2.25477   2.32147   2.32786   2.33419   2.33729
 Alpha virt. eigenvalues --    2.34455   2.37446   2.38721   2.39160   2.40057
 Alpha virt. eigenvalues --    2.40731   2.41332   2.41808   2.42543   2.43123
 Alpha virt. eigenvalues --    2.43663   2.44091   2.45100   2.46038   2.47109
 Alpha virt. eigenvalues --    2.47476   2.47735   2.48384   2.50586   2.50916
 Alpha virt. eigenvalues --    2.54147   2.56118   2.57505   2.58029   2.59869
 Alpha virt. eigenvalues --    2.63546   2.64271   2.68370   2.69775   2.70674
 Alpha virt. eigenvalues --    2.73064   2.73452   2.75410   2.76899   2.77809
 Alpha virt. eigenvalues --    2.78569   2.80398   2.82012   2.83806   2.87699
 Alpha virt. eigenvalues --    2.88585   2.89542   2.91811   2.92746   2.94147
 Alpha virt. eigenvalues --    2.94445   2.95666   2.97417   2.98253   2.99037
 Alpha virt. eigenvalues --    3.01227   3.03496   3.04844   3.05205   3.06458
 Alpha virt. eigenvalues --    3.07896   3.08593   3.10157   3.10610   3.11903
 Alpha virt. eigenvalues --    3.14279   3.15002   3.16561   3.17955   3.21606
 Alpha virt. eigenvalues --    3.22876   3.26774   3.31553   3.37772   3.39359
 Alpha virt. eigenvalues --    3.48266   3.58385   3.65606   3.67114   3.67955
 Alpha virt. eigenvalues --    3.68754   3.69048   3.70464   3.70870   3.71765
 Alpha virt. eigenvalues --    3.72104   3.76341   3.80858   3.85627   3.89965
 Alpha virt. eigenvalues --    3.92652   3.94687   3.95815   4.00765   4.01657
 Alpha virt. eigenvalues --    4.02767   4.06672   4.08831   4.09223   4.12385
 Alpha virt. eigenvalues --    4.19888   4.25088   4.95216   4.97928   4.99152
 Alpha virt. eigenvalues --    5.03249   5.05415   5.06907   5.12821   5.21643
 Alpha virt. eigenvalues --    5.27930   5.31033   5.33572   5.34190   5.47317
 Alpha virt. eigenvalues --    5.56878   5.60368   5.61398   5.64263   5.80843
 Alpha virt. eigenvalues --   23.68840  23.72205  23.75138  23.77865  23.80960
 Alpha virt. eigenvalues --   23.81694  23.88411  23.88983  23.89573  23.90550
 Alpha virt. eigenvalues --   23.90670  49.89398  49.90255  49.94387  49.96030
 Alpha virt. eigenvalues --   49.97696  50.01183
          Condensed to atoms (all electrons):
               1          2          3          4          5          6
     1  C   12.521764  -5.643960   1.569657  -2.691421   0.126735   0.273378
     2  C   -5.643960  20.938302 -10.847911   4.046769  -1.229974   0.244664
     3  C    1.569657 -10.847911  24.236050 -15.289573   7.767719  -4.932209
     4  C   -2.691421   4.046769 -15.289573  31.765275 -16.602799   7.457689
     5  C    0.126735  -1.229974   7.767719 -16.602799  25.137261 -10.899573
     6  C    0.273378   0.244664  -4.932209   7.457689 -10.899573  15.251145
     7  O   -0.081816  -0.125392   0.280277  -0.112331   0.053374   0.121392
     8  O    0.061181   0.071268   0.182663  -0.488557   0.231313  -0.054174
     9  O    0.084974  -0.089418  -0.004262   0.013416  -0.265395   0.375902
    10  O   -0.194949   0.152556   0.121719  -0.035151   0.027458  -0.029308
    11  H    0.303228   0.052777  -0.013977  -0.003052  -0.017346   0.010585
    12  H    0.360867  -0.125583   0.076980   0.021676   0.013186  -0.009097
    13  H   -0.027024   0.197190   0.160802  -0.042284   0.010541  -0.007051
    14  H    0.008824  -0.073914   0.406107   0.040491  -0.012733  -0.005254
    15  H    0.036221  -0.040327   0.137787   0.058459   0.127106  -0.005386
    16  H    0.016989  -0.011280   0.039286   0.046740   0.182776   0.066755
    17  H   -0.026402  -0.039121   0.054416  -0.020476   0.115628   0.269344
    18  O    0.097318  -0.013649   0.043910  -0.147535   0.034164   0.070702
    19  C    0.173636  -0.369719   0.025120  -0.040898  -0.002237   0.009498
    20  H    0.035912  -0.004005   0.002131  -0.000406   0.000482  -0.000762
    21  H   -0.017742   0.005306   0.000874  -0.000622   0.000733  -0.001271
    22  H   -0.006914  -0.008576  -0.002287   0.000004  -0.000586   0.001948
    23  C    0.019341   0.013198  -0.026160  -0.131656  -0.164163   0.092632
    24  H   -0.002680   0.003010   0.003607  -0.039308   0.016507   0.003584
    25  H    0.000830  -0.004662   0.001406   0.059208  -0.067973   0.010347
    26  H    0.000090   0.002138  -0.003604  -0.003346   0.032857   0.002312
    27  C   -0.029083  -0.247567   0.248999  -0.165482  -0.131990   0.038894
    28  H    0.005029   0.009184   0.062579  -0.042795  -0.043442   0.002263
    29  H    0.000498  -0.004608   0.001932  -0.051425   0.055162  -0.002553
    30  H    0.000587   0.000742   0.003407   0.026936   0.000560  -0.002444
    31  C   -0.220757  -0.174536   0.916828  -1.163878   1.407469  -1.389239
    32  O    0.065345   0.193850  -0.091194  -0.080781  -0.275867   0.401422
    33  C   -0.308476  -0.452813   0.713800   0.025147   0.498426  -0.932649
    34  H   -0.001563  -0.003400  -0.011294   0.012087  -0.002172   0.000934
    35  H    0.005094  -0.004861   0.000834  -0.000877  -0.005792   0.006468
    36  H   -0.000457   0.001445  -0.000152  -0.004082   0.007292  -0.004520
               7          8          9         10         11         12
     1  C   -0.081816   0.061181   0.084974  -0.194949   0.303228   0.360867
     2  C   -0.125392   0.071268  -0.089418   0.152556   0.052777  -0.125583
     3  C    0.280277   0.182663  -0.004262   0.121719  -0.013977   0.076980
     4  C   -0.112331  -0.488557   0.013416  -0.035151  -0.003052   0.021676
     5  C    0.053374   0.231313  -0.265395   0.027458  -0.017346   0.013186
     6  C    0.121392  -0.054174   0.375902  -0.029308   0.010585  -0.009097
     7  O    7.753942  -0.004125   0.017332   0.026828  -0.010768   0.012277
     8  O   -0.004125   7.972384   0.079769   0.000183  -0.000396   0.000099
     9  O    0.017332   0.079769   7.937857  -0.002759   0.018823  -0.012897
    10  O    0.026828   0.000183  -0.002759   8.112803  -0.040155  -0.042876
    11  H   -0.010768  -0.000396   0.018823  -0.040155   0.532988  -0.048286
    12  H    0.012277   0.000099  -0.012897  -0.042876  -0.048286   0.558766
    13  H   -0.021335  -0.002803   0.010583   0.011480   0.006157  -0.005115
    14  H    0.007093  -0.012733  -0.067678  -0.000212  -0.000845   0.007095
    15  H    0.000323  -0.008575   0.010709   0.000199  -0.000016  -0.000120
    16  H    0.005319   0.010643   0.005423  -0.000023   0.000013  -0.000007
    17  H   -0.068019  -0.001859  -0.006387   0.000429  -0.000062   0.000057
    18  O    0.016045   0.015687   0.002455  -0.000132   0.000079  -0.000196
    19  C    0.007298   0.000326   0.000643   0.134521   0.007782  -0.000647
    20  H   -0.000104   0.000000  -0.000005  -0.056935  -0.000191  -0.000247
    21  H   -0.000187   0.000001  -0.000154  -0.038577  -0.005071   0.012026
    22  H    0.000855  -0.000001   0.000205  -0.043328   0.014051  -0.004239
    23  C   -0.003054   0.002574   0.003037  -0.000912   0.000077  -0.000302
    24  H    0.000051  -0.000002  -0.000118  -0.000008   0.000002   0.000002
    25  H    0.000416   0.000225   0.000051  -0.000002   0.000000   0.000000
    26  H   -0.000427   0.000117   0.000012  -0.000009  -0.000000   0.000000
    27  C    0.005809   0.118699   0.000516  -0.000106   0.000094   0.001041
    28  H   -0.000089  -0.045461  -0.002882  -0.000003  -0.000004   0.000036
    29  H   -0.000029  -0.028800   0.000756   0.000000   0.000001  -0.000009
    30  H    0.000012  -0.061614  -0.000434   0.000000   0.000000  -0.000001
    31  C    0.025892   0.074880   0.331721   0.003937   0.007796   0.003074
    32  O   -0.074425   0.028735  -0.070862  -0.000634   0.000631  -0.000605
    33  C    0.030765  -0.182016  -0.575154   0.002411  -0.011067   0.004434
    34  H    0.000253  -0.001355  -0.001081   0.000001  -0.000009   0.000001
    35  H    0.000069   0.000283  -0.009566  -0.000008   0.000077   0.000002
    36  H   -0.000262   0.000339   0.014992   0.000000  -0.000003  -0.000000
              13         14         15         16         17         18
     1  C   -0.027024   0.008824   0.036221   0.016989  -0.026402   0.097318
     2  C    0.197190  -0.073914  -0.040327  -0.011280  -0.039121  -0.013649
     3  C    0.160802   0.406107   0.137787   0.039286   0.054416   0.043910
     4  C   -0.042284   0.040491   0.058459   0.046740  -0.020476  -0.147535
     5  C    0.010541  -0.012733   0.127106   0.182776   0.115628   0.034164
     6  C   -0.007051  -0.005254  -0.005386   0.066755   0.269344   0.070702
     7  O   -0.021335   0.007093   0.000323   0.005319  -0.068019   0.016045
     8  O   -0.002803  -0.012733  -0.008575   0.010643  -0.001859   0.015687
     9  O    0.010583  -0.067678   0.010709   0.005423  -0.006387   0.002455
    10  O    0.011480  -0.000212   0.000199  -0.000023   0.000429  -0.000132
    11  H    0.006157  -0.000845  -0.000016   0.000013  -0.000062   0.000079
    12  H   -0.005115   0.007095  -0.000120  -0.000007   0.000057  -0.000196
    13  H    0.415245  -0.000991   0.001481  -0.000189   0.000490  -0.004621
    14  H   -0.000991   0.425350  -0.006970   0.000026   0.000096  -0.001175
    15  H    0.001481  -0.006970   0.439635   0.000404  -0.000231   0.003259
    16  H   -0.000189   0.000026   0.000404   0.448396  -0.007053  -0.020568
    17  H    0.000490   0.000096  -0.000231  -0.007053   0.442790  -0.008573
[...]
 22901,0.00016640,0.00014607,0.00058461,-0.00072911,-0.00111821,0.00022
 743,-0.00058461,0.00015004,0.00017803,0.00007945,0.00006250,-0.0002077
 9,-0.00003684,0.00001342,-0.00295863,-0.00028398,0.00115003,0.00026185
 ,-0.00121357,-0.00148858,0.00040964,-0.00040776,-0.00057982,0.00046359
 ,0.00012703,-0.00026772,0.03754368,0.08692324,0.77115724,-0.00077142,0
 .00005269,-0.00071326,0.00164905,0.00231091,0.00709623,-0.00847863,0.0
 0299495,-0.00428548,0.00237023,0.00120645,0.00482785,-0.02016457,0.038
 14227,-0.00248539,-0.05733565,-0.02711271,0.00872328,0.01855572,0.0092
 4665,-0.02250139,-0.00095101,-0.00502729,-0.00352419,0.03536000,0.0018
 5173,0.02260592,0.00053625,-0.00044259,-0.00032643,0.00023972,0.000262
 79,0.00012963,0.00013980,0.00015685,-0.00053231,-0.00075810,-0.0014992
 7,-0.00085147,0.00167096,-0.00098216,0.00007652,0.00085360,0.00050938,
 -0.00050414,0.00061800,-0.00016850,0.00001120,-0.00696024,0.00908554,-
 0.00227418,-0.01377367,-0.00060119,-0.00276011,-0.00044301,-0.00023344
 ,0.00021631,0.00000592,0.00000770,0.00001575,0.00003731,0.00000246,-0.
 00009456,0.00008412,0.00001775,0.00003270,0.00105766,-0.00354462,-0.00
 384910,0.00090210,-0.00010138,0.00038597,-0.00007613,0.00018103,0.0004
 4569,-0.00018631,0.00035494,0.00039954,-0.00146121,0.00135338,0.001358
 95,0.00019399,-0.00016392,-0.00070659,0.00014140,-0.00044935,-0.000453
 97,-0.00012417,-0.00021997,-0.00009050,-0.15614126,0.11679514,0.072981
 36,0.21734304,0.00142519,-0.00003183,0.00090756,-0.00287172,-0.0075605
 8,-0.01703389,0.00901227,-0.00786076,0.01066297,-0.00178078,-0.0013422
 4,-0.00210848,0.00360628,-0.00965961,-0.00234175,-0.00984495,-0.001051
 56,-0.02827353,0.00086267,-0.04561546,0.05785492,-0.00230544,0.0004976
 5,-0.00247577,-0.00346619,0.01914289,-0.04694409,-0.00097897,0.0005413
 2,0.00093619,-0.00035114,-0.00031033,-0.00050853,-0.00029408,-0.000356
 38,0.00103238,0.00135134,0.00245532,0.00299421,-0.00147340,0.00140564,
 -0.00008352,-0.00085648,0.00026098,0.00122304,0.00087026,0.00038413,0.
 00011393,0.02726207,-0.02403159,0.00609551,0.00368583,0.00221319,0.000
 82009,0.00082734,0.00057914,-0.00050076,-0.00001597,-0.00003859,-0.000
 03344,-0.00009513,0.00000059,0.00023220,-0.00011618,-0.00003360,-0.000
 05670,-0.00080434,0.00055678,0.00112399,-0.00030939,0.00075689,0.00014
 919,-0.00002815,0.00002737,-0.00016741,0.00018614,0.00009548,0.0001256
 2,-0.00047485,0.00097641,-0.00059101,0.00001517,-0.00008418,0.00047707
 ,-0.00035944,-0.00034777,-0.00013766,0.00019610,0.00015606,0.00004646,
 0.12522445,-0.23117492,-0.12481536,-0.17925096,0.33021242,-0.00000832,
 -0.00069780,0.00106981,-0.00399819,-0.00044997,-0.00211041,0.01340313,
 -0.00683544,0.00944127,0.00062756,0.00171843,-0.00372149,-0.01076708,0
 .00062138,-0.00065933,-0.00610437,0.00847414,-0.08217529,-0.01455655,0
 .03022794,-0.00375439,-0.00120435,-0.00022615,0.00116301,0.01310379,-0
 .04098671,-0.08869126,0.00034305,0.00137633,-0.00038758,-0.00034188,-0
 .00020227,-0.00016074,-0.00003522,-0.00007943,0.00041789,0.00043318,0.
 00087548,-0.00017567,-0.00154387,0.00065828,0.00030922,-0.00045257,0.0
 0015686,0.00153134,-0.00110188,-0.00068216,0.00080821,0.01656683,-0.01
 740372,0.00627777,0.00196491,-0.00012645,0.00308808,-0.00047807,-0.000
 21846,0.00029937,0.00002854,0.00007731,-0.00005675,0.00008057,-0.00001
 339,-0.00002334,0.00009039,-0.00005497,-0.00005440,-0.00058860,-0.0002
 9534,0.00008990,0.00003018,0.00061046,-0.00006019,-0.00020788,-0.00001
 601,0.00004973,0.00016363,0.00023018,0.00023538,0.00044976,-0.00005126
 ,-0.00079212,-0.00012374,0.00033810,0.00059961,-0.00018395,-0.00002111
 ,0.00018745,-0.00007548,0.00002462,0.00008080,0.09050498,-0.14144756,-
 0.27246195,-0.09671347,0.17084858,0.42080477,-0.00021988,-0.00009551,0
 .00002476,-0.00094283,0.00092513,0.00015935,0.00401111,0.00302085,0.00
 079037,0.00068406,-0.00015959,0.00032772,0.00018350,-0.00065819,0.0001
 7946,0.00613200,-0.00125282,0.00187175,0.00000488,0.00134753,-0.002409
 96,-0.00019948,-0.00002080,-0.00023556,-0.00367379,0.01108900,-0.01485
 031,0.00013838,0.00010989,-0.00008240,0.00002824,-0.00000095,-0.000011
 55,0.00006114,0.00002177,-0.00001603,0.00005882,0.00018751,-0.00005367
 ,0.00043807,-0.00022553,0.00007535,0.00001401,0.00013755,-0.00020147,-
 0.00008237,-0.00003755,-0.00004243,-0.00067706,0.00044525,-0.00015156,
 0.00024914,-0.00000790,0.00019633,-0.00010318,-0.00004357,0.00004321,0
 .00000707,0.00001065,-0.00000154,0.00001355,-0.00000248,-0.00001042,0.
 00002502,-0.00000185,-0.00000338,-0.00001579,0.00005843,0.00002050,-0.
 00002426,-0.00003478,-0.00001769,0.00000759,-0.00000581,0.00000335,-0.
 00000770,-0.00000618,-0.00001952,0.00006043,0.00016897,0.00002395,0.00
 000782,-0.00000517,0.00002284,-0.00003391,-0.00005178,-0.00000711,-0.0
 0002963,-0.00000916,0.00000880,-0.16189829,0.07310738,-0.03146471,-0.0
 0966857,0.02578022,-0.00055072,0.55248142,-0.00008131,0.00021606,-0.00
 013147,-0.00132283,0.00039457,-0.00119206,0.00025246,0.00678255,-0.003
 59797,0.00141554,-0.00150791,0.00091724,-0.00027567,-0.00148400,0.0002
 3525,-0.00042203,0.00927026,-0.00277287,-0.00068289,-0.00064215,0.0012
 6109,-0.00041633,0.00088867,0.00041042,0.00698301,0.00274026,0.0106001
 0,-0.00014763,-0.00028363,0.00022417,0.00007901,0.00001683,-0.00002841
 ,0.00001246,-0.00002731,0.00006112,0.00016859,0.00027045,0.00015819,0.
 00028657,-0.00003665,-0.00001181,0.00024117,0.00009893,-0.00044131,-0.
 00009754,-0.00004333,-0.00001643,0.00009950,-0.00005781,0.00008457,0.0
 0143407,-0.00044044,0.00017216,0.00020729,0.00010012,-0.00016728,-0.00
 000690,-0.00002363,0.00001043,-0.00001508,0.00001094,0.00003516,-0.000
 02076,0.00001303,-0.00000132,-0.00027927,0.00034636,0.00047565,-0.0000
 4870,0.00000223,-0.00007481,0.00000153,-0.00000306,-0.00005966,0.00003
 244,-0.00003166,-0.00002460,-0.00002553,-0.00045057,-0.00040084,0.0000
 0747,-0.00004186,0.00014470,-0.00001603,0.00005078,0.00006936,0.000089
 81,0.00007114,-0.00002102,0.06302048,-0.14525759,0.03233408,0.03081810
 ,-0.02781346,-0.00984356,0.00724854,0.50846378,-0.00018074,-0.00020085
 ,0.00023555,-0.00179528,-0.00058861,-0.00227620,0.00528085,-0.00077634
 ,-0.00053775,0.00005612,0.00041782,-0.00099131,-0.00035881,-0.00076333
 ,-0.00046660,-0.00307461,0.00338114,-0.00521842,-0.00054639,-0.0017654
 2,0.00412325,-0.00013009,-0.00020554,0.00041088,-0.03589968,0.02836720
 ,-0.02835440,0.00017521,0.00028974,-0.00008477,0.00000508,-0.00000681,
 -0.00000959,-0.00002413,-0.00000064,0.00011277,0.00035679,0.00065168,0
 .00025062,-0.00089636,0.00063640,-0.00029074,-0.00016515,-0.00009916,0
 .00034573,0.00002296,0.00010407,0.00011226,0.00113227,-0.00090622,0.00
 027267,0.00038793,0.00009617,0.00027543,-0.00010620,-0.00001793,0.0000
 7346,0.00001476,0.00001470,-0.00001504,0.00000504,-0.00000869,-0.00000
 630,0.00002094,-0.00000204,-0.00000369,-0.00001597,-0.00002886,0.00001
 661,-0.00001193,0.00007941,0.00000962,-0.00001351,-0.00000144,0.000004
 61,0.00001507,0.00001836,0.00001625,0.00024621,0.00012239,0.00008412,0
 .00002618,0.00005077,0.00008019,-0.00002204,0.00004081,0.00001378,0.00
 000170,0.00000501,-0.00001255,-0.02937159,0.03223564,-0.09133009,0.021
 45367,-0.02983861,0.00851004,-0.00252203,0.03852594,0.61256824,-0.0000
 2966,-0.00006240,0.00002367,0.00012453,-0.00015360,0.00018685,-0.00017
 188,-0.00133654,0.00029721,-0.00022794,0.00101407,-0.00047613,0.000115
 33,0.00041918,-0.00010947,-0.00061203,-0.00152911,0.00030087,0.0000505
 2,0.00004029,-0.00004858,0.00051128,-0.00062670,0.00022830,-0.00210923
 ,0.00005566,-0.00125139,0.00004882,0.00006795,-0.00004719,-0.00002243,
 0.00000764,0.00000504,0.00000267,0.00000809,-0.00000870,-0.00000251,0.
 00001075,-0.00001669,-0.00020464,0.00008907,-0.00005092,-0.00008191,-0
 .00010343,0.00023057,-0.00000439,0.00003306,0.00003857,0.00001556,-0.0
 0002599,-0.00000713,-0.00036690,0.00001789,-0.00004900,-0.00005896,-0.
 00002185,0.00003133,0.00000451,0.00000478,-0.00000282,0.00000562,-0.00
 000120,-0.00000617,0.00001045,-0.00000154,0.00000068,0.00007180,-0.000
 05356,-0.00008888,0.00000835,-0.00000279,0.00001231,-0.00000320,0.0000
 0228,0.00001499,-0.00000505,0.00000337,0.00000357,-0.00005374,0.000033
 38,-0.00017555,0.00001527,0.00003177,-0.00000625,0.00004457,-0.0000746
 6,0.00004285,-0.00013536,-0.00012590,-0.00000799,0.01567605,0.01924986
 ,-0.00495916,-0.00318068,0.00142695,0.00180839,-0.11190985,-0.11324587
 ,0.02638057,0.11937308,-0.00001935,-0.00005576,0.00005482,-0.00013591,
 0.00013753,-0.00002323,0.00068436,0.00016309,0.00037254,0.00009481,-0.
 00036730,0.00007938,0.00003710,-0.00040437,0.00004242,0.00137920,0.000
 16145,0.00001731,-0.00012678,0.00030847,-0.00032467,-0.00069870,-0.000
 00216,-0.00046420,0.00061997,0.00090502,-0.00227872,0.00005057,0.00008
 997,-0.00005510,-0.00001220,-0.00000038,-0.00000415,0.00000372,0.00000
 479,0.00000010,0.00001677,0.00002910,0.00000208,0.00007385,-0.00002426
 ,0.00001039,-0.00004336,0.00010731,-0.00005755,0.00001501,-0.00000297,
 -0.00003022,-0.00007955,0.00002997,-0.00001129,0.00008980,0.00011496,0
 .00007755,-0.00005086,-0.00002365,0.00003913,0.00000271,0.00000651,-0.
 00000281,0.00000474,-0.00000347,-0.00000747,0.00000748,-0.00000305,-0.
 00000195,0.00000104,-0.00001541,-0.00002133,-0.00000692,-0.00000078,0.
 00000088,0.00000711,-0.00000321,0.00000315,-0.00000331,0.00000419,-0.0
 0000445,0.00018953,0.00053687,0.00031735,0.00004977,0.00000391,-0.0000
 2797,-0.00003788,-0.00008584,-0.00005909,-0.00007299,-0.00002371,0.000
 02602,-0.01119697,-0.02597347,0.00625696,0.00125957,0.00134089,0.00084
 436,-0.11699970,-0.23013562,0.04831211,0.12404920,0.25248037,0.0000383
 3,-0.00000204,0.00002438,0.00013779,-0.00009810,0.00002337,-0.00047213
 ,-0.00097116,0.00020556,-0.00018531,0.00052701,-0.00039104,-0.00009223
 ,-0.00012590,0.00007685,0.00005227,0.00028694,-0.00014598,-0.00002519,
 -0.00001650,0.00005926,0.00037417,-0.00040928,-0.00007462,-0.00218880,
 0.00032906,-0.00102912,-0.00001092,0.00000864,-0.00000915,-0.00001392,
 -0.00001295,0.00000184,-0.00000538,0.00000067,-0.00000433,-0.00000334,
 -0.00001779,0.00000199,-0.00013544,0.00009265,-0.00004439,-0.00005415,
 -0.00004868,0.00013011,0.00001985,0.00000462,0.00001308,0.00000199,-0.
 00002338,0.00001844,0.00007213,-0.00002940,-0.00003805,0.00000085,0.00
 000169,0.00000663,0.00000007,-0.00000004,-0.00000058,-0.00000029,0.000
 00056,-0.00000159,-0.00000073,-0.00000110,-0.00000070,-0.00001321,0.00
 001497,0.00004764,-0.00000188,-0.00000107,-0.00000247,0.00000493,0.000
 00290,-0.00000483,0.00000297,-0.00000210,-0.00000520,-0.00015546,0.000
 11361,0.00019834,0.00001351,0.00007582,-0.00020683,0.00008805,-0.00007
 915,-0.00005854,-0.00011557,-0.00005510,0.00008269,0.00607912,0.008998
 44,-0.00497238,0.00117786,-0.00126214,-0.00024211,0.02726941,0.0488668
 4,-0.04902516,-0.02984370,-0.05329840,0.05343640,-0.00000714,0.0000414
 4,-0.00001555,0.00019271,0.00018713,0.00036885,-0.00031396,0.00021768,
 -0.00029756,0.00005967,-0.00000887,0.00015195,0.00009276,0.00006882,0.
 00003352,0.00119463,-0.00104905,0.00106527,0.00004258,0.00039599,-0.00
 083790,-0.00004450,-0.00013827,-0.00021672,0.00199374,-0.00025996,-0.0
 0034770,-0.00002392,-0.00008138,0.00001053,0.00001824,0.00001939,0.000
 00617,0.00000556,0.00000243,-0.00003349,-0.00004555,-0.00009559,-0.000
 03868,0.00006001,-0.00004339,0.00000447,0.00002288,0.00004469,-0.00004
 391,0.00000105,-0.00001098,-0.00002626,-0.00024762,0.00017960,-0.00008
 212,-0.00008793,-0.00000275,-0.00003620,0.00003952,0.00000797,-0.00001
 432,-0.00000364,-0.00000296,0.00000250,-0.00000208,0.00000104,-0.00000
 009,-0.00000733,0.00000162,-0.00000142,0.00001743,0.00000793,-0.000011
 13,-0.00000345,-0.00001364,-0.00000148,0.00000127,-0.00000145,0.000001
 51,-0.00000347,-0.00000253,-0.00000171,-0.00005775,0.00016444,0.000217
 94,-0.00000602,-0.00000173,-0.00011119,0.00003168,-0.00004615,-0.00005
 157,-0.00001958,-0.00001532,0.00000746,-0.01415821,-0.00083658,0.01824
 396,-0.00253978,0.00421231,-0.00116687,-0.16277811,0.03956755,0.129163
 91,-0.00954825,0.00398746,0.01020174,0.17285419,0.00022109,-0.00011548
 ,0.00010694,-0.00007896,-0.00015378,-0.00037189,0.00025629,-0.00055099
 ,0.00045698,-0.00015606,0.00008902,-0.00026008,-0.00008275,-0.00029812
 ,-0.00008396,-0.00028840,0.00123467,-0.00123459,-0.00031361,-0.0003844
 6,0.00097021,-0.00013851,-0.00010904,-0.00010878,-0.00220204,0.0005631
 6,-0.00150494,-0.00006716,0.00014835,-0.00004682,-0.00008020,-0.000025
 26,-0.00002340,-0.00003628,-0.00000590,0.00001249,0.00002628,0.0000650
 3,0.00004598,-0.00009140,0.00008947,-0.00002143,-0.00006437,0.00000364
 ,0.00008746,0.00002629,0.00001458,0.00001565,0.00023228,-0.00019207,0.
 00006196,0.00014010,0.00003275,0.00005933,0.00000239,-0.00001904,0.000
 05496,-0.00000443,0.00000760,-0.00000400,-0.00000143,-0.00000544,-0.00
 000595,-0.00000890,-0.00000770,-0.00000900,-0.00000261,0.00000156,0.00
 001579,-0.00000648,0.00001611,0.00000066,-0.00000082,-0.00000168,0.000
 00080,0.00000368,0.00000372,0.00000131,0.00002319,0.00017276,0.0002004
 9,-0.00000494,0.00003924,-0.00007097,0.00001323,-0.00002043,-0.0000406
 3,-0.00002159,-0.00000307,0.00003191,0.01648757,-0.00745195,-0.0192520
 7,0.00438343,-0.00492703,0.00198931,0.03655530,-0.05042325,-0.03994634
 ,-0.01757704,0.00696815,0.01990306,-0.04315014,0.05816722,-0.00004730,
 -0.00000249,0.00003198,0.00005576,0.00007371,0.00016096,0.00001384,-0.
 00041518,0.00063577,-0.00007823,0.00019912,-0.00014716,0.00014937,-0.0
 0002383,-0.00001396,0.00066806,-0.00013246,0.00075180,0.00006083,0.000
 16539,-0.00050222,-0.00002656,-0.00016097,-0.00009951,-0.00085871,0.00
 120188,-0.00165650,0.00005188,-0.00000009,-0.00004462,0.00001403,0.000
 01479,0.00003566,-0.00001005,0.00000829,-0.00003050,-0.00000350,-0.000
 01381,-0.00003013,0.00001647,-0.00004123,0.00000184,-0.00004969,0.0000
 0117,0.00004758,-0.00001014,0.00000737,-0.00001083,-0.00018259,0.00015
 768,-0.00005613,-0.00010015,0.00004660,0.00001338,-0.00002658,-0.00000
 988,0.00002386,0.00000386,0.00000158,-0.00000233,-0.00000220,0.0000001
 7,-0.00001012,0.00000442,0.00000288,0.00000463,0.00003401,-0.00001095,
 -0.00004205,-0.00000450,-0.00000743,0.00000433,-0.00000026,-0.00000196
 ,0.00000581,-0.00000563,-0.00000023,-0.00000024,-0.00000001,0.00011150
 ,0.00008233,-0.00000659,-0.00000419,-0.00000963,-0.00000402,-0.0000102
 8,-0.00001574,-0.00000169,-0.00001510,-0.00000907,-0.00754746,-0.00132
 156,0.00926068,-0.00170027,0.00368651,0.00043585,0.13460103,-0.0425819
 7,-0.20642150,0.00275320,-0.00203989,-0.00484143,-0.14459658,0.0437372
 4,0.21596619,-0.00002005,-0.00002891,0.00006034,-0.00037227,-0.0000390
 5,-0.00040703,0.00109817,0.00031801,-0.00007539,0.00017136,-0.00002538
 ,-0.00011746,0.00000952,-0.00018508,-0.00012506,-0.00007556,0.00095720
 ,-0.00034110,-0.00007404,-0.00023927,0.00052092,-0.00017373,-0.0000018
 7,0.00003241,-0.00227427,0.00297738,-0.00236478,0.00001654,0.00004146,
 -0.00001723,-0.00000398,0.00000769,-0.00000101,-0.00000809,0.00000100,
 0.00000835,0.00007313,0.00011329,0.00004680,-0.00010771,0.00008942,-0.
 00004090,-0.00002369,0.00001084,0.00002756,-0.00002524,0.00001035,0.00
 001613,0.00001903,0.00001639,0.00000767,0.00008630,-0.00000508,0.00008
 978,0.00000126,0.00000065,0.00001235,0.00000207,0.00000182,-0.00000227
 ,-0.00000131,-0.00000104,-0.00000227,0.00000079,0.00000097,-0.00000164
 ,0.00001152,0.00000995,-0.00000289,-0.00000543,0.00001273,-0.00000123,
 -0.00000887,-0.00000268,0.00000272,0.00000261,0.00000072,0.00000395,0.
 00006665,0.00008856,0.00008359,0.00000364,0.00000765,0.00001181,-0.000
 00626,-0.00000436,-0.00000764,-0.00000057,-0.00000146,-0.00000721,-0.0
 1035928,-0.01189793,-0.01605028,0.00125554,-0.00026706,0.00060416,-0.1
 1234153,-0.03486125,-0.10961078,-0.00734981,-0.00313930,-0.01221738,0.
 01327039,0.00600701,0.01683596,0.11714317,0.00010291,0.00001721,-0.000
 02735,0.00046089,0.00004252,0.00041055,-0.00078880,-0.00040713,0.00048
 633,-0.00015550,-0.00014469,0.00017410,0.00000340,0.00016600,-0.000012
 48,0.00005121,-0.00063394,0.00033743,-0.00005128,0.00007623,-0.0003722
 3,-0.00005011,0.00017254,-0.00009566,0.00501998,-0.00351494,0.00323011
 ,-0.00006204,-0.00004177,0.00000165,-0.00002363,0.00001159,0.00000568,
 -0.00001236,-0.00000221,-0.00002595,-0.00008098,-0.00014214,-0.0000395
 8,0.00017096,-0.00014229,0.00008212,0.00002914,0.00002663,-0.00005335,
 0.00000074,-0.00000851,-0.00001884,0.00002742,0.00000460,-0.00002102,-
 0.00010018,0.00000423,-0.00004053,0.00003606,-0.00000160,0.00000128,-0
 .00000378,-0.00000233,0.00000414,-0.00000541,-0.00000098,-0.00000296,-
 0.00001271,0.00000211,0.00000235,0.00001515,0.00000369,-0.00001535,0.0
 0000140,-0.00000997,0.00000258,0.00000169,-0.00000092,0.00000131,-0.00
 000256,-0.00000102,-0.00000160,0.00001292,-0.00006118,-0.00004183,0.00
 001789,-0.00003223,0.00006033,-0.00002452,0.00002801,0.00001423,0.0000
 5102,0.00002603,-0.00002260,0.01210525,0.00765189,0.02186411,-0.001196
 33,0.00063674,0.00058000,-0.04059467,-0.07103305,-0.07819251,-0.011623
 05,-0.00626714,-0.02277320,-0.00334674,-0.00292235,-0.00262232,0.04002
 661,0.07650038,-0.00005782,0.00004019,-0.00001556,-0.00017180,-0.00000
 473,-0.00020804,0.00034142,-0.00008463,0.00009889,-0.00000886,-0.00000
 213,-0.00007667,-0.00009053,-0.00024472,0.00003621,-0.00006651,0.00120
 722,-0.00020124,-0.00002097,-0.00015782,0.00027006,0.00010292,0.000044
 24,0.00009536,-0.00261995,0.00072660,0.00064425,0.00001220,-0.00002831
 ,0.00003300,0.00002426,-0.00001425,-0.00001026,0.00001297,-0.00000541,
 0.00002334,0.00005171,0.00004172,0.00002448,-0.00004773,0.00004297,-0.
 00002639,-0.00000564,-0.00001650,0.00002201,0.00000182,0.00000824,0.00
 001124,0.00000453,-0.00001537,0.00002416,0.00023363,-0.00006076,0.0000
 1768,0.00000274,0.00001460,-0.00002727,0.00000188,-0.00000292,0.000000
 61,0.00000093,0.00000155,0.00000680,0.00000431,0.00000163,0.00000039,-
 0.00004450,0.00004835,0.00007997,-0.00000531,0.00000154,-0.00000609,0.
 00000388,0.00000221,-0.00001041,0.00000497,-0.00000432,-0.00000528,-0.
 00002147,-0.00008343,-0.00007661,0.00000070,0.00001075,0.00000879,0.00
 000660,0.00000376,0.00001433,-0.00001080,0.00000032,0.00000634,-0.0033
 8030,-0.00070297,-0.00958959,0.00242839,-0.00215779,0.00012750,-0.1129
 6609,-0.07321907,-0.24247195,0.00479674,0.00225593,0.00677193,-0.01154
 732,-0.00476770,-0.01351898,0.12302903,0.07712105,0.25792699\\0.000002
 16,-0.00000149,-0.00000433,0.00000321,-0.00000033,0.00000469,-0.000004
 90,0.00000397,-0.00000344,0.00000059,-0.00000593,0.00000119,-0.0000085
 6,0.00000164,-0.00000220,0.00000538,0.00000616,-0.00000418,-0.00000492
 ,-0.00000428,-0.00000322,-0.00000497,0.00000314,-0.00000042,0.00000770
 ,-0.00000399,0.00000931,0.00000817,-0.00000500,-0.00000460,0.00000343,
 -0.00000374,0.00000278,0.00000663,-0.00000657,-0.00000076,0.00000192,-
 0.00000142,-0.00000544,0.00000338,-0.00000381,0.00000185,-0.00000116,-
 0.00000011,-0.00000220,-0.00000363,0.00000547,-0.00000179,-0.00000630,
 0.00000610,-0.00000196,0.00000110,0.00000689,-0.00000420,-0.00000004,-
 0.00000861,0.00000036,0.00000638,-0.00000557,-0.00000598,0.00000835,-0
 .00000861,-0.00000356,0.00000643,-0.00000542,-0.00000113,-0.00000370,-
 0.00000040,-0.00001341,-0.00000304,0.00000581,-0.00000765,-0.00000502,
 0.00000708,-0.00000737,-0.00000226,0.00000492,-0.00001195,0.00000161,0
 .00000362,0.00000876,0.00000139,-0.00000251,0.00000511,-0.00000012,-0.
 00000169,0.00000143,-0.00000182,0.00000029,0.00000653,-0.00000294,0.00
 000096,0.00000221,-0.00000279,0.00000472,0.00000468,-0.00000104,0.0000
 0139,0.00000992,-0.00000436,0.00000285,0.00001013,-0.00000156,0.000000
 41,0.00001101,-0.00000473,0.00000407,0.00000982\\\@


 I do not feel obliged to believe that the same God who
 has endowed us with sense, reason, and intellect has
 intended us to forgo their use.
                   --Galileo Galilei
 Job cpu time:       0 days  6 hours 40 minutes 38.9 seconds.
 File lengths (MBytes):  RWF=    766 Int=      0 D2E=      0 Chk=     19 Scr=      1
 Normal termination of Gaussian 09 at Tue Oct 24 15:09:22 2017.
