 Entering Gaussian System, Link 0=g09
 Initial command:
 /share/apps//g09/l1.exe "/scratch/Gau-34015.inp" -scrdir="/scratch/"
 Entering Link 1 = /share/apps//g09/l1.exe PID=     34016.
  
 Copyright (c) 1988,1990,1992,1993,1995,1998,2003,2009,2013,
            Gaussian, Inc.  All Rights Reserved.
  
 This is part of the Gaussian(R) 09 program.  It is based on
 the Gaussian(R) 03 system (copyright 2003, Gaussian, Inc.),
 the Gaussian(R) 98 system (copyright 1998, Gaussian, Inc.),
 the Gaussian(R) 94 system (copyright 1995, Gaussian, Inc.),
 the Gaussian 92(TM) system (copyright 1992, Gaussian, Inc.),
 the Gaussian 90(TM) system (copyright 1990, Gaussian, Inc.),
 the Gaussian 88(TM) system (copyright 1988, Gaussian, Inc.),
 the Gaussian 86(TM) system (copyright 1986, Carnegie Mellon
 University), and the Gaussian 82(TM) system (copyright 1983,
 Carnegie Mellon University). Gaussian is a federally registered
 trademark of Gaussian, Inc.
  
 This software contains proprietary and confidential information,
 including trade secrets, belonging to Gaussian, Inc.
  
 This software is provided under written license and may be
 used, copied, transmitted, or stored only in accord with that
 written license.
  
 The following legend is applicable only to US Government
 contracts under FAR:
  
                    RESTRICTED RIGHTS LEGEND
  
 Use, reproduction and disclosure by the US Government is
 subject to restrictions as set forth in subparagraphs (a)
 and (c) of the Commercial Computer Software - Restricted
 Rights clause in FAR 52.227-19.
  
 Gaussian, Inc.
 340 Quinnipiac St., Bldg. 40, Wallingford CT 06492
  
  
 ---------------------------------------------------------------
 Warning -- This program may not be used in any manner that
 competes with the business of Gaussian, Inc. or will provide
 assistance to any competitor of Gaussian, Inc.  The licensee
 of this program is prohibited from giving any competitor of
 Gaussian, Inc. access to this program.  By using this program,
 the user acknowledges that Gaussian, Inc. is engaged in the
 business of creating and licensing software in the field of
 computational chemistry and represents and warrants to the
 licensee that it is not a competitor of Gaussian, Inc. and that
 it will not use this program in any manner prohibited above.
 ---------------------------------------------------------------
  

 Cite this work as:
 Gaussian 09, Revision D.01,
 M. J. Frisch, G. W. Trucks, H. B. Schlegel, G. E. Scuseria, 
 M. A. Robb, J. R. Cheeseman, G. Scalmani, V. Barone, B. Mennucci, 
 G. A. Petersson, H. Nakatsuji, M. Caricato, X. Li, H. P. Hratchian, 
 A. F. Izmaylov, J. Bloino, G. Zheng, J. L. Sonnenberg, M. Hada, 
 M. Ehara, K. Toyota, R. Fukuda, J. Hasegawa, M. Ishida, T. Nakajima, 
 Y. Honda, O. Kitao, H. Nakai, T. Vreven, J. A. Montgomery, Jr., 
 J. E. Peralta, F. Ogliaro, M. Bearpark, J. J. Heyd, E. Brothers, 
 K. N. Kudin, V. N. Staroverov, T. Keith, R. Kobayashi, J. Normand, 
 K. Raghavachari, A. Rendell, J. C. Burant, S. S. Iyengar, J. Tomasi, 
 M. Cossi, N. Rega, J. M. Millam, M. Klene, J. E. Knox, J. B. Cross, 
 V. Bakken, C. Adamo, J. Jaramillo, R. Gomperts, R. E. Stratmann, 
 O. Yazyev, A. J. Austin, R. Cammi, C. Pomelli, J. W. Ochterski, 
 R. L. Martin, K. Morokuma, V. G. Zakrzewski, G. A. Voth, 
 P. Salvador, J. J. Dannenberg, S. Dapprich, A. D. Daniels, 
 O. Farkas, J. B. Foresman, J. V. Ortiz, J. Cioslowski, 
 and D. J. Fox, Gaussian, Inc., Wallingford CT, 2013.
 
 ******************************************
 Gaussian 09:  EM64L-G09RevD.01 24-Apr-2013
                24-Oct-2017 
 ******************************************
 %nproc=20
 Will use up to   20 processors via shared memory.
 %mem=100GB
 %chk=Ac-4_cGalMe.chk
 -------------------------------------------------------------------
 #P PBE1PBE/6-311+G(d,p) opt optcyc=999 freq EmpiricalDispersion=GD3
 -------------------------------------------------------------------
 1/6=999,14=-1,18=20,19=15,26=3,38=1/1,3;
 2/9=110,12=2,17=6,18=5,40=1/2;
 3/5=4,6=6,7=111,11=2,16=1,25=1,30=1,71=1,74=-13,124=31/1,2,3;
 4//1;
 5/5=2,38=5/2;
 6/7=2,8=2,9=2,10=2,28=1/1;
 7//1,2,3,16;
 1/6=999,14=-1,18=20,19=15,26=3/3(2);
 2/9=110/2;
 99//99;
 2/9=110/2;
 3/5=4,6=6,7=111,11=2,16=1,25=1,30=1,71=1,74=-13,124=31/1,2,3;
 4/5=5,16=3,69=1/1;
 5/5=2,38=5/2;
 7//1,2,3,16;
 1/6=999,14=-1,18=20,19=15,26=3/3(-5);
 2/9=110/2;
 6/7=2,8=2,9=2,10=2,19=2,28=1/1;
 99/9=1/99;
 Leave Link    1 at Tue Oct 24 12:45:25 2017, MaxMem= 13421772800 cpu:         2.7
 (Enter /share/apps//g09/l101.exe)
 -------
 disacch
 -------
 Symbolic Z-matrix:
 Charge =  1 Multiplicity = 1
 C                    -1.90375   0.13869   2.5263 
 C                    -0.60412   0.01027   1.74921 
 C                     0.14091   1.31155   1.51051 
 C                     1.48535   1.0789    0.80586 
 C                     1.37021  -0.06409  -0.24221 
 C                    -0.10938  -0.30424  -0.56037 
 O                    -0.92448  -0.60946   0.45158 
 O                     1.90618   2.31072   0.26429 
 O                    -0.70958   2.26359   0.73125 
 O                    -2.29608  -1.16184   2.89265 
 H                    -2.67404   0.639     1.90566 
 H                    -1.72065   0.77749   3.41585 
 H                     0.06216  -0.68556   2.28693 
 H                     0.28908   1.86359   2.44637 
 H                     2.18387   0.71009   1.58197 
 H                     1.88209   0.23436  -1.1759 
 H                    -0.33391  -0.94456  -1.41964 
 O                     1.94603  -1.21817   0.33202 
 C                    -3.55917  -1.18374   3.56561 
 H                    -3.76874  -2.23319   3.79713 
 H                    -3.5226   -0.60307   4.50348 
 H                    -4.36111  -0.78433   2.92109 
 C                     2.19049  -2.30044  -0.58675 
 H                     1.25896  -2.80309  -0.88987 
 H                     2.73052  -1.94103  -1.47777 
 H                     2.81768  -3.01594  -0.04553 
 C                     3.32465   2.38419   0.03111 
 H                     3.87915   2.24947   0.97316 
 H                     3.66026   1.63215  -0.70102 
 H                     3.51526   3.38498  -0.36919 
 C                    -0.85896   2.15483  -0.56037 
 O                    -0.57794   1.12797  -1.26116 
 C                    -1.41009   3.35184  -1.24035 
 H                    -0.57734   4.05478  -1.3986 
 H                    -2.14271   3.84978  -0.5952 
 H                    -1.84429   3.08378  -2.207 
 
 NAtoms=     36 NQM=       36 NQMF=       0 NMMI=      0 NMMIF=      0
                NMic=       0 NMicF=      0.
                    Isotopes and Nuclear Properties:
 (Nuclear quadrupole moments (NQMom) in fm**2, nuclear magnetic moments (NMagM)
  in nuclear magnetons)

  Atom         1           2           3           4           5           6           7           8           9          10
 IAtWgt=          12          12          12          12          12          12          16          16          16          16
 AtmWgt=  12.0000000  12.0000000  12.0000000  12.0000000  12.0000000  12.0000000  15.9949146  15.9949146  15.9949146  15.9949146
 NucSpn=           0           0           0           0           0           0           0           0           0           0
 AtZEff=   0.0000000   0.0000000   0.0000000   0.0000000   0.0000000   0.0000000   0.0000000   0.0000000   0.0000000   0.0000000
 NQMom=    0.0000000   0.0000000   0.0000000   0.0000000   0.0000000   0.0000000   0.0000000   0.0000000   0.0000000   0.0000000
 NMagM=    0.0000000   0.0000000   0.0000000   0.0000000   0.0000000   0.0000000   0.0000000   0.0000000   0.0000000   0.0000000
 AtZNuc=   6.0000000   6.0000000   6.0000000   6.0000000   6.0000000   6.0000000   8.0000000   8.0000000   8.0000000   8.0000000

  Atom        11          12          13          14          15          16          17          18          19          20
 IAtWgt=           1           1           1           1           1           1           1          16          12           1
 AtmWgt=   1.0078250   1.0078250   1.0078250   1.0078250   1.0078250   1.0078250   1.0078250  15.9949146  12.0000000   1.0078250
 NucSpn=           1           1           1           1           1           1           1           0           0           1
 AtZEff=   0.0000000   0.0000000   0.0000000   0.0000000   0.0000000   0.0000000   0.0000000   0.0000000   0.0000000   0.0000000
 NQMom=    0.0000000   0.0000000   0.0000000   0.0000000   0.0000000   0.0000000   0.0000000   0.0000000   0.0000000   0.0000000
 NMagM=    2.7928460   2.7928460   2.7928460   2.7928460   2.7928460   2.7928460   2.7928460   0.0000000   0.0000000   2.7928460
 AtZNuc=   1.0000000   1.0000000   1.0000000   1.0000000   1.0000000   1.0000000   1.0000000   8.0000000   6.0000000   1.0000000

  Atom        21          22          23          24          25          26          27          28          29          30
 IAtWgt=           1           1          12           1           1           1          12           1           1           1
 AtmWgt=   1.0078250   1.0078250  12.0000000   1.0078250   1.0078250   1.0078250  12.0000000   1.0078250   1.0078250   1.0078250
 NucSpn=           1           1           0           1           1           1           0           1           1           1
 AtZEff=   0.0000000   0.0000000   0.0000000   0.0000000   0.0000000   0.0000000   0.0000000   0.0000000   0.0000000   0.0000000
 NQMom=    0.0000000   0.0000000   0.0000000   0.0000000   0.0000000   0.0000000   0.0000000   0.0000000   0.0000000   0.0000000
 NMagM=    2.7928460   2.7928460   0.0000000   2.7928460   2.7928460   2.7928460   0.0000000   2.7928460   2.7928460   2.7928460
 AtZNuc=   1.0000000   1.0000000   6.0000000   1.0000000   1.0000000   1.0000000   6.0000000   1.0000000   1.0000000   1.0000000

  Atom        31          32          33          34          35          36
 IAtWgt=          12          16          12           1           1           1
 AtmWgt=  12.0000000  15.9949146  12.0000000   1.0078250   1.0078250   1.0078250
 NucSpn=           0           0           0           1           1           1
 AtZEff=   0.0000000   0.0000000   0.0000000   0.0000000   0.0000000   0.0000000
 NQMom=    0.0000000   0.0000000   0.0000000   0.0000000   0.0000000   0.0000000
 NMagM=    0.0000000   0.0000000   0.0000000   2.7928460   2.7928460   2.7928460
 AtZNuc=   6.0000000   8.0000000   6.0000000   1.0000000   1.0000000   1.0000000
 Leave Link  101 at Tue Oct 24 12:45:25 2017, MaxMem= 13421772800 cpu:         4.9
 (Enter /share/apps//g09/l103.exe)

 GradGradGradGradGradGradGradGradGradGradGradGradGradGradGradGradGradGrad
 Berny optimization.
 Initialization pass.
                           ----------------------------
                           !    Initial Parameters    !
                           ! (Angstroms and Degrees)  !
 --------------------------                            --------------------------
 ! Name  Definition              Value          Derivative Info.                !
 --------------------------------------------------------------------------------
 ! R1    R(1,2)                  1.5197         estimate D2E/DX2                !
 ! R2    R(1,10)                 1.407          estimate D2E/DX2                !
 ! R3    R(1,11)                 1.1085         estimate D2E/DX2                !
 ! R4    R(1,12)                 1.1104         estimate D2E/DX2                !
 ! R5    R(2,3)                  1.5183         estimate D2E/DX2                !
 ! R6    R(2,7)                  1.4733         estimate D2E/DX2                !
 ! R7    R(2,13)                 1.1033         estimate D2E/DX2                !
 ! R8    R(3,4)                  1.5356         estimate D2E/DX2                !
 ! R9    R(3,9)                  1.4956         estimate D2E/DX2                !
 ! R10   R(3,14)                 1.0966         estimate D2E/DX2                !
 ! R11   R(4,5)                  1.555          estimate D2E/DX2                !
 ! R12   R(4,8)                  1.4099         estimate D2E/DX2                !
 ! R13   R(4,15)                 1.1074         estimate D2E/DX2                !
 ! R14   R(5,6)                  1.5323         estimate D2E/DX2                !
 ! R15   R(5,16)                 1.1058         estimate D2E/DX2                !
 ! R16   R(5,18)                 1.4118         estimate D2E/DX2                !
 ! R17   R(6,7)                  1.3348         estimate D2E/DX2                !
 ! R18   R(6,17)                 1.0949         estimate D2E/DX2                !
 ! R19   R(6,32)                 1.6619         estimate D2E/DX2                !
 ! R20   R(8,27)                 1.4394         estimate D2E/DX2                !
 ! R21   R(9,31)                 1.3048         estimate D2E/DX2                !
 ! R22   R(10,19)                1.4313         estimate D2E/DX2                !
 ! R23   R(18,23)                1.4406         estimate D2E/DX2                !
 ! R24   R(19,20)                1.0949         estimate D2E/DX2                !
 ! R25   R(19,21)                1.1037         estimate D2E/DX2                !
 ! R26   R(19,22)                1.1036         estimate D2E/DX2                !
 ! R27   R(23,24)                1.101          estimate D2E/DX2                !
 ! R28   R(23,25)                1.1021         estimate D2E/DX2                !
 ! R29   R(23,26)                1.0946         estimate D2E/DX2                !
 ! R30   R(27,28)                1.1014         estimate D2E/DX2                !
 ! R31   R(27,29)                1.1019         estimate D2E/DX2                !
 ! R32   R(27,30)                1.0946         estimate D2E/DX2                !
 ! R33   R(31,32)                1.2746         estimate D2E/DX2                !
 ! R34   R(31,33)                1.4829         estimate D2E/DX2                !
 ! R35   R(33,34)                1.1012         estimate D2E/DX2                !
 ! R36   R(33,35)                1.0959         estimate D2E/DX2                !
 ! R37   R(33,36)                1.0931         estimate D2E/DX2                !
 ! A1    A(2,1,10)             107.0683         estimate D2E/DX2                !
 ! A2    A(2,1,11)             110.2492         estimate D2E/DX2                !
 ! A3    A(2,1,12)             108.4972         estimate D2E/DX2                !
 ! A4    A(10,1,11)            111.6666         estimate D2E/DX2                !
 ! A5    A(10,1,12)            111.6646         estimate D2E/DX2                !
 ! A6    A(11,1,12)            107.6662         estimate D2E/DX2                !
 ! A7    A(1,2,3)              115.3155         estimate D2E/DX2                !
 ! A8    A(1,2,7)              107.4561         estimate D2E/DX2                !
 ! A9    A(1,2,13)             108.6952         estimate D2E/DX2                !
 ! A10   A(3,2,7)              109.1924         estimate D2E/DX2                !
 ! A11   A(3,2,13)             108.7123         estimate D2E/DX2                !
 ! A12   A(7,2,13)             107.1751         estimate D2E/DX2                !
 ! A13   A(2,3,4)              111.8321         estimate D2E/DX2                !
 ! A14   A(2,3,9)              110.3909         estimate D2E/DX2                !
 ! A15   A(2,3,14)             111.3199         estimate D2E/DX2                !
 ! A16   A(4,3,9)              110.8059         estimate D2E/DX2                !
 ! A17   A(4,3,14)             110.4614         estimate D2E/DX2                !
 ! A18   A(9,3,14)             101.5978         estimate D2E/DX2                !
 ! A19   A(3,4,5)              110.8425         estimate D2E/DX2                !
 ! A20   A(3,4,8)              107.7712         estimate D2E/DX2                !
 ! A21   A(3,4,15)             106.3264         estimate D2E/DX2                !
 ! A22   A(5,4,8)              113.9162         estimate D2E/DX2                !
 ! A23   A(5,4,15)             105.9185         estimate D2E/DX2                !
 ! A24   A(8,4,15)             111.8339         estimate D2E/DX2                !
 ! A25   A(4,5,6)              109.0642         estimate D2E/DX2                !
 ! A26   A(4,5,16)             109.6588         estimate D2E/DX2                !
 ! A27   A(4,5,18)             107.2483         estimate D2E/DX2                !
 ! A28   A(6,5,16)             108.297          estimate D2E/DX2                !
 ! A29   A(6,5,18)             110.4969         estimate D2E/DX2                !
 ! A30   A(16,5,18)            112.0392         estimate D2E/DX2                !
 ! A31   A(5,6,7)              117.909          estimate D2E/DX2                !
 ! A32   A(5,6,17)             116.9116         estimate D2E/DX2                !
 ! A33   A(5,6,32)             102.987          estimate D2E/DX2                !
 ! A34   A(7,6,17)             109.6355         estimate D2E/DX2                !
 ! A35   A(7,6,32)             110.1568         estimate D2E/DX2                !
 ! A36   A(17,6,32)             96.6178         estimate D2E/DX2                !
 ! A37   A(2,7,6)              116.0263         estimate D2E/DX2                !
 ! A38   A(4,8,27)             113.639          estimate D2E/DX2                !
 ! A39   A(3,9,31)             121.8577         estimate D2E/DX2                !
 ! A40   A(1,10,19)            112.4971         estimate D2E/DX2                !
 ! A41   A(5,18,23)            115.0835         estimate D2E/DX2                !
 ! A42   A(10,19,20)           106.4382         estimate D2E/DX2                !
 ! A43   A(10,19,21)           111.2375         estimate D2E/DX2                !
 ! A44   A(10,19,22)           111.1681         estimate D2E/DX2                !
 ! A45   A(20,19,21)           109.3252         estimate D2E/DX2                !
 ! A46   A(20,19,22)           109.3462         estimate D2E/DX2                !
 ! A47   A(21,19,22)           109.2644         estimate D2E/DX2                !
 ! A48   A(18,23,24)           112.0238         estimate D2E/DX2                !
 ! A49   A(18,23,25)           110.718          estimate D2E/DX2                !
 ! A50   A(18,23,26)           105.8406         estimate D2E/DX2                !
 ! A51   A(24,23,25)           109.9288         estimate D2E/DX2                !
 ! A52   A(24,23,26)           108.8125         estimate D2E/DX2                !
 ! A53   A(25,23,26)           109.398          estimate D2E/DX2                !
 ! A54   A(8,27,28)            110.5687         estimate D2E/DX2                !
 ! A55   A(8,27,29)            111.8973         estimate D2E/DX2                !
 ! A56   A(8,27,30)            106.1121         estimate D2E/DX2                !
 ! A57   A(28,27,29)           109.3583         estimate D2E/DX2                !
 ! A58   A(28,27,30)           109.6917         estimate D2E/DX2                !
 ! A59   A(29,27,30)           109.1461         estimate D2E/DX2                !
 ! A60   A(9,31,32)            125.8877         estimate D2E/DX2                !
 ! A61   A(9,31,33)            115.4165         estimate D2E/DX2                !
 ! A62   A(32,31,33)           118.6957         estimate D2E/DX2                !
 ! A63   A(6,32,31)            121.6427         estimate D2E/DX2                !
 ! A64   A(31,33,34)           107.4647         estimate D2E/DX2                !
 ! A65   A(31,33,35)           110.2            estimate D2E/DX2                !
 ! A66   A(31,33,36)           110.8054         estimate D2E/DX2                !
 ! A67   A(34,33,35)           107.4644         estimate D2E/DX2                !
 ! A68   A(34,33,36)           109.2598         estimate D2E/DX2                !
 ! A69   A(35,33,36)           111.4999         estimate D2E/DX2                !
 ! D1    D(10,1,2,3)          -167.7475         estimate D2E/DX2                !
 ! D2    D(10,1,2,7)            70.2492         estimate D2E/DX2                !
 ! D3    D(10,1,2,13)          -45.4216         estimate D2E/DX2                !
 ! D4    D(11,1,2,3)            70.5895         estimate D2E/DX2                !
 ! D5    D(11,1,2,7)           -51.4139         estimate D2E/DX2                !
 ! D6    D(11,1,2,13)         -167.0846         estimate D2E/DX2                !
 ! D7    D(12,1,2,3)           -47.0881         estimate D2E/DX2                !
 ! D8    D(12,1,2,7)          -169.0914         estimate D2E/DX2                !
 ! D9    D(12,1,2,13)           75.2378         estimate D2E/DX2                !
 ! D10   D(2,1,10,19)         -176.4292         estimate D2E/DX2                !
 ! D11   D(11,1,10,19)         -55.6621         estimate D2E/DX2                !
 ! D12   D(12,1,10,19)          64.9465         estimate D2E/DX2                !
 ! D13   D(1,2,3,4)            176.0632         estimate D2E/DX2                !
 ! D14   D(1,2,3,9)            -60.0781         estimate D2E/DX2                !
 ! D15   D(1,2,3,14)            51.9654         estimate D2E/DX2                !
 ! D16   D(7,2,3,4)            -62.8706         estimate D2E/DX2                !
 ! D17   D(7,2,3,9)             60.988          estimate D2E/DX2                !
 ! D18   D(7,2,3,14)           173.0316         estimate D2E/DX2                !
 ! D19   D(13,2,3,4)            53.7464         estimate D2E/DX2                !
 ! D20   D(13,2,3,9)           177.6051         estimate D2E/DX2                !
 ! D21   D(13,2,3,14)          -70.3514         estimate D2E/DX2                !
 ! D22   D(1,2,7,6)            152.3023         estimate D2E/DX2                !
 ! D23   D(3,2,7,6)             26.564          estimate D2E/DX2                !
 ! D24   D(13,2,7,6)           -91.0258         estimate D2E/DX2                !
 ! D25   D(2,3,4,5)             37.0226         estimate D2E/DX2                !
 ! D26   D(2,3,4,8)            162.3007         estimate D2E/DX2                !
 ! D27   D(2,3,4,15)           -77.6433         estimate D2E/DX2                !
 ! D28   D(9,3,4,5)            -86.6026         estimate D2E/DX2                !
 ! D29   D(9,3,4,8)             38.6755         estimate D2E/DX2                !
 ! D30   D(9,3,4,15)           158.7315         estimate D2E/DX2                !
 ! D31   D(14,3,4,5)           161.6            estimate D2E/DX2                !
 ! D32   D(14,3,4,8)           -73.1219         estimate D2E/DX2                !
 ! D33   D(14,3,4,15)           46.9342         estimate D2E/DX2                !
 ! D34   D(2,3,9,31)           -78.7079         estimate D2E/DX2                !
 ! D35   D(4,3,9,31)            45.7411         estimate D2E/DX2                !
 ! D36   D(14,3,9,31)          163.1115         estimate D2E/DX2                !
 ! D37   D(3,4,5,6)             17.4726         estimate D2E/DX2                !
 ! D38   D(3,4,5,16)           135.9085         estimate D2E/DX2                !
 ! D39   D(3,4,5,18)          -102.2113         estimate D2E/DX2                !
 ! D40   D(8,4,5,6)           -104.2698         estimate D2E/DX2                !
 ! D41   D(8,4,5,16)            14.1661         estimate D2E/DX2                !
 ! D42   D(8,4,5,18)           136.0463         estimate D2E/DX2                !
 ! D43   D(15,4,5,6)           132.3937         estimate D2E/DX2                !
 ! D44   D(15,4,5,16)         -109.1704         estimate D2E/DX2                !
 ! D45   D(15,4,5,18)           12.7097         estimate D2E/DX2                !
 ! D46   D(3,4,8,27)           157.676          estimate D2E/DX2                !
 ! D47   D(5,4,8,27)           -78.8979         estimate D2E/DX2                !
 ! D48   D(15,4,8,27)           41.1617         estimate D2E/DX2                !
 ! D49   D(4,5,6,7)            -57.353          estimate D2E/DX2                !
 ! D50   D(4,5,6,17)           168.5959         estimate D2E/DX2                !
 ! D51   D(4,5,6,32)            64.1362         estimate D2E/DX2                !
 ! D52   D(16,5,6,7)          -176.6387         estimate D2E/DX2                !
 ! D53   D(16,5,6,17)           49.3102         estimate D2E/DX2                !
 ! D54   D(16,5,6,32)          -55.1494         estimate D2E/DX2                !
 ! D55   D(18,5,6,7)            60.2995         estimate D2E/DX2                !
 ! D56   D(18,5,6,17)          -73.7515         estimate D2E/DX2                !
 ! D57   D(18,5,6,32)         -178.2112         estimate D2E/DX2                !
 ! D58   D(4,5,18,23)         -167.3016         estimate D2E/DX2                !
 ! D59   D(6,5,18,23)           73.9356         estimate D2E/DX2                !
 ! D60   D(16,5,18,23)         -46.9226         estimate D2E/DX2                !
 ! D61   D(5,6,7,2)             33.2414         estimate D2E/DX2                !
 ! D62   D(17,6,7,2)           170.3621         estimate D2E/DX2                !
 ! D63   D(32,6,7,2)           -84.4901         estimate D2E/DX2                !
 ! D64   D(5,6,32,31)          -79.9034         estimate D2E/DX2                !
 ! D65   D(7,6,32,31)           46.7058         estimate D2E/DX2                !
 ! D66   D(17,6,32,31)         160.4684         estimate D2E/DX2                !
 ! D67   D(4,8,27,28)          -60.2178         estimate D2E/DX2                !
 ! D68   D(4,8,27,29)           61.9502         estimate D2E/DX2                !
 ! D69   D(4,8,27,30)         -179.1003         estimate D2E/DX2                !
 ! D70   D(3,9,31,32)           16.0991         estimate D2E/DX2                !
 ! D71   D(3,9,31,33)         -164.0307         estimate D2E/DX2                !
 ! D72   D(1,10,19,20)         179.6497         estimate D2E/DX2                !
 ! D73   D(1,10,19,21)         -61.3488         estimate D2E/DX2                !
 ! D74   D(1,10,19,22)          60.6612         estimate D2E/DX2                !
 ! D75   D(5,18,23,24)         -73.1885         estimate D2E/DX2                !
 ! D76   D(5,18,23,25)          49.9114         estimate D2E/DX2                !
 ! D77   D(5,18,23,26)         168.3635         estimate D2E/DX2                !
 ! D78   D(9,31,32,6)            6.4141         estimate D2E/DX2                !
 ! D79   D(33,31,32,6)        -173.4522         estimate D2E/DX2                !
 ! D80   D(9,31,33,34)          81.568          estimate D2E/DX2                !
 ! D81   D(9,31,33,35)         -35.2395         estimate D2E/DX2                !
 ! D82   D(9,31,33,36)        -159.1269         estimate D2E/DX2                !
 ! D83   D(32,31,33,34)        -98.552          estimate D2E/DX2                !
 ! D84   D(32,31,33,35)        144.6405         estimate D2E/DX2                !
 ! D85   D(32,31,33,36)         20.7531         estimate D2E/DX2                !
 --------------------------------------------------------------------------------
 Trust Radius=3.00D-01 FncErr=1.00D-07 GrdErr=1.00D-06
 Number of steps in this run=    216 maximum allowed number of steps=    216.
 GradGradGradGradGradGradGradGradGradGradGradGradGradGradGradGradGradGrad

 Leave Link  103 at Tue Oct 24 12:45:25 2017, MaxMem= 13421772800 cpu:         0.3
 (Enter /share/apps//g09/l202.exe)
                          Input orientation:                          
 ---------------------------------------------------------------------
 Center     Atomic      Atomic             Coordinates (Angstroms)
 Number     Number       Type             X           Y           Z
 ---------------------------------------------------------------------
      1          6           0       -1.903750    0.138690    2.526300
      2          6           0       -0.604120    0.010270    1.749210
      3          6           0        0.140910    1.311550    1.510510
      4          6           0        1.485350    1.078900    0.805860
      5          6           0        1.370210   -0.064090   -0.242210
      6          6           0       -0.109380   -0.304240   -0.560370
      7          8           0       -0.924480   -0.609460    0.451580
      8          8           0        1.906180    2.310720    0.264290
      9          8           0       -0.709580    2.263590    0.731250
     10          8           0       -2.296080   -1.161840    2.892650
     11          1           0       -2.674040    0.639000    1.905660
     12          1           0       -1.720650    0.777490    3.415850
     13          1           0        0.062160   -0.685560    2.286930
     14          1           0        0.289080    1.863590    2.446370
     15          1           0        2.183870    0.710090    1.581970
     16          1           0        1.882090    0.234360   -1.175900
     17          1           0       -0.333910   -0.944560   -1.419640
     18          8           0        1.946030   -1.218170    0.332020
     19          6           0       -3.559170   -1.183740    3.565610
     20          1           0       -3.768740   -2.233190    3.797130
     21          1           0       -3.522600   -0.603070    4.503480
     22          1           0       -4.361110   -0.784330    2.921090
     23          6           0        2.190490   -2.300440   -0.586750
     24          1           0        1.258960   -2.803090   -0.889870
     25          1           0        2.730520   -1.941030   -1.477770
     26          1           0        2.817680   -3.015940   -0.045530
     27          6           0        3.324650    2.384190    0.031110
     28          1           0        3.879150    2.249470    0.973160
     29          1           0        3.660260    1.632150   -0.701020
     30          1           0        3.515260    3.384980   -0.369190
     31          6           0       -0.858960    2.154830   -0.560370
     32          8           0       -0.577940    1.127970   -1.261160
     33          6           0       -1.410090    3.351840   -1.240350
     34          1           0       -0.577340    4.054780   -1.398600
     35          1           0       -2.142710    3.849780   -0.595200
     36          1           0       -1.844290    3.083780   -2.207000
 ---------------------------------------------------------------------
                    Distance matrix (angstroms):
                    1          2          3          4          5
     1  C    0.000000
     2  C    1.519671   0.000000
     3  C    2.566723   1.518347   0.000000
     4  C    3.915343   2.529380   1.535636   0.000000
     5  C    4.292386   2.805220   2.544718   1.555035   0.000000
     6  C    3.597705   2.382823   2.638554   2.514523   1.532346
     7  O    2.413123   1.473275   2.438579   2.963672   2.458531
     8  O    4.934569   3.714655   2.380669   1.409885   2.486670
     9  O    3.027119   2.474836   1.495647   2.495351   3.269747
    10  O    1.406952   2.354575   3.737230   4.865678   4.947129
    11  H    1.108535   2.168951   2.921029   4.324766   4.632887
    12  H    1.110356   2.147779   2.716790   4.145037   4.862415
    13  H    2.145108   1.103291   2.144173   2.707833   2.914407
    14  H    2.791088   2.172242   1.096602   2.176712   3.480410
    15  H    4.234016   2.879341   2.130856   1.107383   2.142202
    16  H    5.296038   3.845481   3.377698   2.190439   1.105835
    17  H    4.382724   3.320591   3.728440   3.515245   2.250687
    18  O    4.634300   3.165558   3.323670   2.390247   1.411811
    19  C    2.359958   3.668418   4.913298   6.179235   6.328657
    20  H    3.273990   4.386560   5.751450   6.893700   6.886949
    21  H    2.660850   4.059521   5.103425   6.448332   6.837519
    22  H    2.654514   4.014930   5.162425   6.490525   6.585836
    23  C    5.692384   4.313460   4.652499   3.722435   2.406830
    24  H    5.506998   4.283784   4.893069   4.242240   2.816729
    25  H    6.467942   5.033964   5.120076   3.985648   2.626777
    26  H    6.233611   4.907928   5.321046   4.389497   3.293520
    27  C    6.213245   4.901285   3.670883   2.384752   3.144617
    28  H    6.348982   5.071093   3.891385   2.669925   3.622770
    29  H    6.603349   5.178712   4.168870   2.703147   2.886532
    30  H    6.948952   5.731106   4.383905   3.289268   4.063674
    31  C    3.831963   3.161999   2.449368   2.918904   3.161334
    32  O    4.132953   3.211272   2.869251   2.920984   2.500911
    33  C    4.975509   4.555562   3.759736   4.211509   4.516075
    34  H    5.700874   5.125182   4.062526   4.239127   4.700562
    35  H    4.855209   4.754509   4.011427   4.775308   5.271014
    36  H    5.575053   5.161016   4.571838   4.917659   4.909429
                    6          7          8          9         10
     6  C    0.000000
     7  O    1.334762   0.000000
     8  O    3.403022   4.071261   0.000000
     9  O    2.936371   2.894618   2.657531   0.000000
    10  O    4.176180   2.853985   6.051937   4.349966   0.000000
    11  H    3.680827   2.594988   5.144624   2.806712   2.088068
    12  H    4.424552   3.368147   5.043513   3.230764   2.089464
    13  H    2.877837   2.085128   4.058223   3.422457   2.480934
    14  H    3.728102   3.401160   2.752528   2.024588   4.004428
    15  H    3.298103   3.561016   2.091748   3.392512   5.029111
    16  H    2.152886   3.352247   2.527053   3.804175   5.996631
    17  H    1.094883   1.990610   4.295401   3.880681   4.742696
    18  O    2.419987   2.936775   3.529765   4.397079   4.955350
    19  C    5.449613   4.119293   7.278737   5.295077   1.431346
    20  H    6.008292   4.681775   8.082870   6.243325   2.033372
    21  H    6.114078   4.813332   7.478807   5.510040   2.100321
    22  H    5.516181   4.235503   7.477757   5.236305   2.099446
    23  C    3.045474   3.693316   4.697648   5.565779   5.790677
    24  H    2.867957   3.373264   5.282237   5.672251   5.444214
    25  H    3.403783   4.342176   4.668157   5.864545   6.706297
    26  H    4.023190   4.476832   5.412959   6.396748   6.182324
    27  C    4.401144   5.214771   1.439385   4.096310   7.235699
    28  H    4.978104   5.614302   2.097346   4.595124   7.311289
    29  H    4.240233   5.231935   2.114019   4.641725   7.496588
    30  H    5.175414   6.028309   2.035797   4.507522   8.067518
    31  C    2.570777   2.944424   2.889700   1.304770   4.998896
    32  O    1.661891   2.464190   3.145910   2.297098   5.044737
    33  C    3.939688   4.334783   3.787548   2.358434   6.183848
    34  H    4.463482   5.029792   3.460465   2.786056   6.970080
    35  H    4.625097   4.739689   4.415987   2.515816   6.107778
    36  H    4.147286   4.642641   4.557513   3.254780   6.651002
                   11         12         13         14         15
    11  H    0.000000
    12  H    1.791314   0.000000
    13  H    3.063759   2.567759   0.000000
    14  H    3.251472   2.481636   2.564192   0.000000
    15  H    4.869201   4.314271   2.635614   2.380752   0.000000
    16  H    5.515258   5.861646   4.018655   4.279359   2.814825
    17  H    4.363656   5.316998   3.736658   4.818699   4.252851
    18  O    5.222114   5.190107   2.766643   4.088179   2.310223
    19  C    2.619403   2.692398   3.872627   5.034674   6.364270
    20  H    3.609086   3.661180   4.399052   5.922336   7.000243
    21  H    3.001910   2.517123   4.215496   4.984478   6.543960
    22  H    2.429644   3.107426   4.469590   5.372253   6.845677
    23  C    6.206131   6.386820   3.923731   5.491295   3.710348
    24  H    5.927180   6.343331   4.001040   5.817995   4.394074
    25  H    6.878475   7.151977   4.782187   5.986204   4.085251
    26  H    6.879296   6.853299   4.296968   6.034335   4.115066
    27  C    6.522569   6.284346   5.015569   3.913974   2.551305
    28  H    6.812303   6.284204   4.990972   3.899725   2.369455
    29  H    6.921307   6.828855   5.219765   4.617844   2.870882
    30  H    7.143023   6.967086   5.962229   4.544254   3.568566
    31  C    3.416659   4.295335   4.125942   3.231610   3.991956
    32  O    3.829031   4.827323   4.035785   3.877968   3.985675
    33  C    4.342171   5.329533   5.559660   4.323653   5.278341
    34  H    5.194404   5.935210   6.038453   4.509522   5.262607
    35  H    4.104354   5.070071   5.808393   4.371464   5.772089
    36  H    4.855863   6.078709   6.167486   5.262507   6.018037
                   16         17         18         19         20
    16  H    0.000000
    17  H    2.521888   0.000000
    18  O    2.094697   2.888131   0.000000
    19  C    7.355286   5.942409   6.384710   0.000000
    20  H    7.921598   6.377563   6.759870   1.094928   0.000000
    21  H    7.884626   6.735556   6.905457   1.103683   1.793546
    22  H    7.536617   5.923339   6.831655   1.103649   1.793751
    23  C    2.620576   2.984076   1.440558   7.179673   7.398334
    24  H    3.113873   2.504401   2.115904   6.759288   6.897139
    25  H    2.354417   3.222897   2.100783   8.097492   8.375578
    26  H    3.566163   4.013890   2.033297   7.553907   7.665485
    27  C    2.856505   5.154640   3.868868   8.521138   9.263870
    28  H    3.559126   5.803205   4.021510   8.592807   9.303723
    29  H    2.311107   4.807207   3.482826   8.846103   9.506011
    30  H    3.639290   5.887654   4.913570   9.295344  10.098451
    31  C    3.403004   3.258871   4.476769   5.954905   6.834424
    32  O    2.618694   2.092856   3.796448   6.126128   6.860386
    33  C    4.534455   4.432760   5.883951   6.948905   7.882385
    34  H    4.549066   5.005307   6.096429   7.808763   8.758950
    35  H    5.441276   5.190102   6.577359   6.682441   7.677178
    36  H    4.802944   4.373638   6.270560   7.380757   8.247621
                   21         22         23         24         25
    21  H    0.000000
    22  H    1.799976   0.000000
    23  C    7.837787   7.584655   0.000000
    24  H    7.536022   7.084066   1.101039   0.000000
    25  H    8.755969   8.424912   1.102145   1.803958   0.000000
    26  H    8.167900   8.081828   1.094635   1.785448   1.792858
    27  C    8.706931   8.801273   4.859406   5.658900   4.619225
    28  H    8.682514   8.994457   5.097703   5.988709   4.988657
    29  H    9.147486   9.126962   4.199827   5.047104   3.772979
    30  H    9.443460   9.499805   5.841776   6.607133   5.496467
    31  C    6.351659   5.746676   5.399007   5.401400   5.522867
    32  O    6.700641   5.954870   4.457918   4.354916   4.517919
    33  C    7.286672   6.567648   6.733472   6.717874   6.724247
    34  H    8.074941   7.509569   6.979169   7.117667   6.848207
    35  H    6.908582   6.225799   7.523423   7.477892   7.619763
    36  H    7.838375   6.898838   6.920584   6.783821   6.834426
                   26         27         28         29         30
    26  H    0.000000
    27  C    5.424417   0.000000
    28  H    5.467082   1.101398   0.000000
    29  H    4.769104   1.101913   1.797742   0.000000
    30  H    6.446949   1.094602   1.795467   1.789846   0.000000
    31  C    6.365501   4.231436   4.981000   4.551519   4.547925
    32  O    5.493631   4.298635   5.110342   4.304683   4.758570
    33  C    7.736295   4.997071   5.838742   5.381139   5.001909
    34  H    7.959400   4.478891   5.361408   4.930822   4.272902
    35  H    8.487975   5.694931   6.425227   6.213175   5.681527
    36  H    7.975745   5.675958   6.600550   5.888572   5.673891
                   31         32         33         34         35
    31  C    0.000000
    32  O    1.274567   0.000000
    33  C    1.482886   2.374554   0.000000
    34  H    2.095650   2.930035   1.101199   0.000000
    35  H    2.126519   3.209401   1.095853   1.771401   0.000000
    36  H    2.131951   2.514647   1.093068   1.789277   1.809340
                   36
    36  H    0.000000
 Stoichiometry    C11H19O6(1+)
 Framework group  C1[X(C11H19O6)]
 Deg. of freedom   102
 Full point group                 C1      NOp   1
 Largest Abelian subgroup         C1      NOp   1
 Largest concise Abelian subgroup C1      NOp   1
                         Standard orientation:                         
 ---------------------------------------------------------------------
 Center     Atomic      Atomic             Coordinates (Angstroms)
 Number     Number       Type             X           Y           Z
 ---------------------------------------------------------------------
      1          6           0       -2.602678   -0.328249   -0.648103
      2          6           0       -1.229870    0.309796   -0.515078
      3          6           0       -0.078561   -0.503275   -1.079684
      4          6           0        1.253728    0.255224   -0.991025
      5          6           0        1.333242    1.082060    0.323568
      6          6           0        0.283266    0.557811    1.308860
      7          8           0       -0.993095    0.554104    0.918376
      8          8           0        2.294471   -0.684290   -1.139160
      9          8           0        0.015427   -1.825011   -0.386042
     10          8           0       -3.551082    0.665032   -0.342429
     11          1           0       -2.688487   -1.199266    0.032204
     12          1           0       -2.719080   -0.700043   -1.687867
     13          1           0       -1.247100    1.293324   -1.014703
     14          1           0       -0.276723   -0.810472   -2.113559
     15          1           0        1.246250    0.994923   -1.815092
     16          1           0        2.331994    0.957397    0.781634
     17          1           0        0.351004    0.914794    2.341693
     18          8           0        1.068342    2.427687   -0.011578
     19          6           0       -4.891802    0.163923   -0.353008
     20          1           0       -5.540346    1.008722   -0.098899
     21          1           0       -5.166973   -0.220753   -1.350214
     22          1           0       -5.024010   -0.636502    0.395245
     23          6           0        1.375919    3.385740    1.019314
     24          1           0        0.648589    3.351384    1.845205
     25          1           0        2.394467    3.225876    1.408836
     26          1           0        1.319942    4.368413    0.540307
     27          6           0        3.536143   -0.105335   -1.580620
     28          1           0        3.409661    0.380425   -2.560986
     29          1           0        3.927705    0.628049   -0.857405
     30          1           0        4.243998   -0.935572   -1.668945
     31          6           0        0.557176   -1.946098    0.794751
     32          8           0        0.794869   -0.994653    1.608860
     33          6           0        0.912751   -3.329536    1.193016
     34          1           0        1.881363   -3.568965    0.727070
     35          1           0        0.174731   -4.037937    0.800092
     36          1           0        1.005686   -3.409115    2.279215
 ---------------------------------------------------------------------
 Rotational constants (GHZ):      0.5865563      0.3727276      0.2930477
 Leave Link  202 at Tue Oct 24 12:45:25 2017, MaxMem= 13421772800 cpu:         0.8
 (Enter /share/apps//g09/l301.exe)
 Standard basis: 6-311+G(d,p) (5D, 7F)
 Ernie: Thresh=  0.10000D-02 Tol=  0.10000D-05 Strict=F.
 There are   505 symmetry adapted cartesian basis functions of A   symmetry.
 There are   488 symmetry adapted basis functions of A   symmetry.
   488 basis functions,   764 primitive gaussians,   505 cartesian basis functions
    66 alpha electrons       66 beta electrons
       nuclear repulsion energy      1427.2720055231 Hartrees.
 IExCor= 1009 DFT=T Ex+Corr=PBE1PBE ExCW=0 ScaHFX=  0.250000
 ScaDFX=  0.750000  0.750000  1.000000  1.000000 ScalE2=  1.000000  1.000000
 IRadAn=      0 IRanWt=     -1 IRanGd=            0 ICorTp=0 IEmpDi=131
 NAtoms=   36 NActive=   36 NUniq=   36 SFac= 1.00D+00 NAtFMM=   60 NAOKFM=F Big=F
 Integral buffers will be    131072 words long.
 Raffenetti 2 integral format.
 Two-electron integral symmetry is turned on.
 R6Disp:  Grimme-D3 Dispersion energy=       -0.0239002835 Hartrees.
 Nuclear repulsion after empirical dispersion term =     1427.2481052396 Hartrees.
 Leave Link  301 at Tue Oct 24 12:45:26 2017, MaxMem= 13421772800 cpu:         1.9
 (Enter /share/apps//g09/l302.exe)
 NPDir=0 NMtPBC=     1 NCelOv=     1 NCel=       1 NClECP=     1 NCelD=      1
         NCelK=      1 NCelE2=     1 NClLst=     1 CellRange=     0.0.
 One-electron integrals computed using PRISM.
 NBasis=   488 RedAO= T EigKep=  1.31D-06  NBF=   488
 NBsUse=   488 1.00D-06 EigRej= -1.00D+00 NBFU=   488
 Precomputing XC quadrature grid using
 IXCGrd= 4 IRadAn=           0 IRanWt=          -1 IRanGd=           0 AccXCQ= 0.00D+00.
 Generated NRdTot=       0 NPtTot=           0 NUsed=           0 NTot=          32
 NSgBfM=   503   503   503   503   503 MxSgAt=    36 MxSgA2=    36.
 Leave Link  302 at Tue Oct 24 12:45:27 2017, MaxMem= 13421772800 cpu:        13.2
 (Enter /share/apps//g09/l303.exe)
 DipDrv:  MaxL=1.
 Leave Link  303 at Tue Oct 24 12:45:27 2017, MaxMem= 13421772800 cpu:         6.3
 (Enter /share/apps//g09/l401.exe)
 ExpMin= 4.38D-02 ExpMax= 8.59D+03 ExpMxC= 1.30D+03 IAcc=2 IRadAn=         4 AccDes= 0.00D+00
 Harris functional with IExCor= 1009 and IRadAn=       4 diagonalized for initial guess.
 HarFok:  IExCor= 1009 AccDes= 0.00D+00 IRadAn=         4 IDoV= 1 UseB2=F ITyADJ=14
 ICtDFT=  3500011 ScaDFX=  1.000000  1.000000  1.000000  1.000000
 FoFCou: FMM=F IPFlag=           0 FMFlag=      100000 FMFlg1=           0
         NFxFlg=           0 DoJE=T BraDBF=F KetDBF=T FulRan=T
         wScrn=  0.000000 ICntrl=     500 IOpCl=  0 I1Cent=   200000004 NGrid=           0
         NMat0=    1 NMatS0=      1 NMatT0=    0 NMatD0=    1 NMtDS0=    0 NMtDT0=    0
 Petite list used in FoFCou.
 Harris En= -881.102396713472    
 JPrj=0 DoOrth=F DoCkMO=F.
 Leave Link  401 at Tue Oct 24 12:45:29 2017, MaxMem= 13421772800 cpu:        22.8
 (Enter /share/apps//g09/l502.exe)
 Closed shell SCF:
 Using DIIS extrapolation, IDIIS=  1040.
 Integral symmetry usage will be decided dynamically.
 Keep R1 ints in memory in canonical form, NReq=7183787934.
 IVT=      797493 IEndB=      797493 NGot= 13421772800 MDV=  6302761722
 LenX=  6302761722 LenY=  6302506192
 Requested convergence on RMS density matrix=1.00D-08 within 128 cycles.
 Requested convergence on MAX density matrix=1.00D-06.
 Requested convergence on             energy=1.00D-06.
 No special actions if energy rises.
 FoFCou: FMM=F IPFlag=           0 FMFlag=           0 FMFlg1=           0
         NFxFlg=           0 DoJE=F BraDBF=F KetDBF=F FulRan=T
         wScrn=  0.000000 ICntrl=     600 IOpCl=  0 I1Cent=           0 NGrid=           0
         NMat0=    1 NMatS0= 119316 NMatT0=    0 NMatD0=    1 NMtDS0=    0 NMtDT0=    0
 Symmetry not used in FoFCou.

 Cycle   1  Pass 1  IDiag  1:
 E= -880.648115544011    
 DIIS: error= 1.34D-02 at cycle   1 NSaved=   1.
 NSaved= 1 IEnMin= 1 EnMin= -880.648115544011     IErMin= 1 ErrMin= 1.34D-02
 ErrMax= 1.34D-02  0.00D+00 EMaxC= 1.00D-01 BMatC= 3.71D-01 BMatP= 3.71D-01
 IDIUse=3 WtCom= 8.66D-01 WtEn= 1.34D-01
 Coeff-Com:  0.100D+01
 Coeff-En:   0.100D+01
 Coeff:      0.100D+01
 Gap=     0.129 Goal=   None    Shift=    0.000
 GapD=    0.129 DampG=1.000 DampE=0.500 DampFc=0.5000 IDamp=-1.
 Damping current iteration by 5.00D-01
 RMSDP=1.78D-02 MaxDP=2.96D+00              OVMax= 1.32D-01

 Cycle   2  Pass 1  IDiag  1:
 E= -880.772478873345     Delta-E=       -0.124363329334 Rises=F Damp=T
 DIIS: error= 2.99D-03 at cycle   2 NSaved=   2.
 NSaved= 2 IEnMin= 2 EnMin= -880.772478873345     IErMin= 2 ErrMin= 2.99D-03
 ErrMax= 2.99D-03  0.00D+00 EMaxC= 1.00D-01 BMatC= 2.94D-02 BMatP= 3.71D-01
 IDIUse=3 WtCom= 9.70D-01 WtEn= 2.99D-02
 Coeff-Com: -0.509D-02 0.101D+01
 Coeff-En:   0.554D-01 0.945D+00
 Coeff:     -0.328D-02 0.100D+01
 Gap=     0.225 Goal=   None    Shift=    0.000
 RMSDP=8.03D-03 MaxDP=1.25D+00 DE=-1.24D-01 OVMax= 9.31D-02

 Cycle   3  Pass 1  IDiag  1:
 E= -880.906733923774     Delta-E=       -0.134255050429 Rises=F Damp=F
 DIIS: error= 4.62D-03 at cycle   3 NSaved=   3.
 NSaved= 3 IEnMin= 3 EnMin= -880.906733923774     IErMin= 2 ErrMin= 2.99D-03
 ErrMax= 4.62D-03  0.00D+00 EMaxC= 1.00D-01 BMatC= 2.15D-02 BMatP= 2.94D-02
 IDIUse=3 WtCom= 9.54D-01 WtEn= 4.62D-02
 Coeff-Com: -0.904D-01 0.482D+00 0.609D+00
 Coeff-En:   0.000D+00 0.000D+00 0.100D+01
 Coeff:     -0.862D-01 0.460D+00 0.627D+00
 Gap=     0.188 Goal=   None    Shift=    0.000
 RMSDP=1.80D-03 MaxDP=1.94D-01 DE=-1.34D-01 OVMax= 2.11D-02

 Cycle   4  Pass 1  IDiag  1:
 E= -880.919993166968     Delta-E=       -0.013259243194 Rises=F Damp=F
 DIIS: error= 2.20D-03 at cycle   4 NSaved=   4.
 NSaved= 4 IEnMin= 4 EnMin= -880.919993166968     IErMin= 4 ErrMin= 2.20D-03
 ErrMax= 2.20D-03  0.00D+00 EMaxC= 1.00D-01 BMatC= 3.93D-03 BMatP= 2.15D-02
 IDIUse=3 WtCom= 9.78D-01 WtEn= 2.20D-02
 Coeff-Com: -0.463D-01 0.149D+00 0.350D+00 0.547D+00
 Coeff-En:   0.000D+00 0.000D+00 0.124D+00 0.876D+00
 Coeff:     -0.453D-01 0.146D+00 0.345D+00 0.554D+00
 Gap=     0.192 Goal=   None    Shift=    0.000
 RMSDP=9.82D-04 MaxDP=1.46D-01 DE=-1.33D-02 OVMax= 6.90D-03

 Cycle   5  Pass 1  IDiag  1:
 E= -880.922874982763     Delta-E=       -0.002881815796 Rises=F Damp=F
 DIIS: error= 3.81D-04 at cycle   5 NSaved=   5.
 NSaved= 5 IEnMin= 5 EnMin= -880.922874982763     IErMin= 5 ErrMin= 3.81D-04
 ErrMax= 3.81D-04  0.00D+00 EMaxC= 1.00D-01 BMatC= 1.18D-04 BMatP= 3.93D-03
 IDIUse=3 WtCom= 9.96D-01 WtEn= 3.81D-03
 Coeff-Com: -0.133D-01 0.305D-01 0.105D+00 0.233D+00 0.645D+00
 Coeff-En:   0.000D+00 0.000D+00 0.000D+00 0.000D+00 0.100D+01
 Coeff:     -0.132D-01 0.304D-01 0.105D+00 0.232D+00 0.646D+00
 Gap=     0.193 Goal=   None    Shift=    0.000
 RMSDP=1.24D-04 MaxDP=1.41D-02 DE=-2.88D-03 OVMax= 1.58D-03

 Cycle   6  Pass 1  IDiag  1:
 E= -880.922947127248     Delta-E=       -0.000072144485 Rises=F Damp=F
 DIIS: error= 1.55D-04 at cycle   6 NSaved=   6.
 NSaved= 6 IEnMin= 6 EnMin= -880.922947127248     IErMin= 6 ErrMin= 1.55D-04
 ErrMax= 1.55D-04  0.00D+00 EMaxC= 1.00D-01 BMatC= 1.99D-05 BMatP= 1.18D-04
 IDIUse=3 WtCom= 9.98D-01 WtEn= 1.55D-03
 Coeff-Com: -0.508D-02 0.878D-02 0.402D-01 0.104D+00 0.381D+00 0.471D+00
 Coeff-En:   0.000D+00 0.000D+00 0.000D+00 0.000D+00 0.678D-01 0.932D+00
 Coeff:     -0.507D-02 0.877D-02 0.402D-01 0.103D+00 0.381D+00 0.472D+00
 Gap=     0.193 Goal=   None    Shift=    0.000
 RMSDP=5.78D-05 MaxDP=7.95D-03 DE=-7.21D-05 OVMax= 5.74D-04

 Cycle   7  Pass 1  IDiag  1:
 E= -880.922961502282     Delta-E=       -0.000014375034 Rises=F Damp=F
 DIIS: error= 2.92D-05 at cycle   7 NSaved=   7.
 NSaved= 7 IEnMin= 7 EnMin= -880.922961502282     IErMin= 7 ErrMin= 2.92D-05
 ErrMax= 2.92D-05  0.00D+00 EMaxC= 1.00D-01 BMatC= 6.12D-07 BMatP= 1.99D-05
 IDIUse=1 WtCom= 1.00D+00 WtEn= 0.00D+00
 Coeff-Com: -0.132D-02 0.186D-02 0.105D-01 0.310D-01 0.131D+00 0.213D+00
 Coeff-Com:  0.614D+00
 Coeff:     -0.132D-02 0.186D-02 0.105D-01 0.310D-01 0.131D+00 0.213D+00
 Coeff:      0.614D+00
 Gap=     0.193 Goal=   None    Shift=    0.000
 RMSDP=1.25D-05 MaxDP=1.41D-03 DE=-1.44D-05 OVMax= 1.49D-04

 Cycle   8  Pass 1  IDiag  1:
 E= -880.922961926015     Delta-E=       -0.000000423733 Rises=F Damp=F
 DIIS: error= 1.12D-05 at cycle   8 NSaved=   8.
 NSaved= 8 IEnMin= 8 EnMin= -880.922961926015     IErMin= 8 ErrMin= 1.12D-05
 ErrMax= 1.12D-05  0.00D+00 EMaxC= 1.00D-01 BMatC= 1.03D-07 BMatP= 6.12D-07
 IDIUse=1 WtCom= 1.00D+00 WtEn= 0.00D+00
 Coeff-Com:  0.129D-04-0.237D-03-0.284D-03 0.147D-02 0.124D-01 0.364D-01
 Coeff-Com:  0.313D+00 0.637D+00
 Coeff:      0.129D-04-0.237D-03-0.284D-03 0.147D-02 0.124D-01 0.364D-01
 Coeff:      0.313D+00 0.637D+00
 Gap=     0.193 Goal=   None    Shift=    0.000
 RMSDP=8.52D-06 MaxDP=1.55D-03 DE=-4.24D-07 OVMax= 5.76D-05

 Cycle   9  Pass 1  IDiag  1:
 E= -880.922961994403     Delta-E=       -0.000000068387 Rises=F Damp=F
 DIIS: error= 5.43D-06 at cycle   9 NSaved=   9.
 NSaved= 9 IEnMin= 9 EnMin= -880.922961994403     IErMin= 9 ErrMin= 5.43D-06
 ErrMax= 5.43D-06  0.00D+00 EMaxC= 1.00D-01 BMatC= 1.90D-08 BMatP= 1.03D-07
 IDIUse=1 WtCom= 1.00D+00 WtEn= 0.00D+00
 Coeff-Com:  0.822D-04-0.248D-03-0.824D-03-0.976D-03-0.904D-03 0.818D-02
 Coeff-Com:  0.154D+00 0.390D+00 0.451D+00
 Coeff:      0.822D-04-0.248D-03-0.824D-03-0.976D-03-0.904D-03 0.818D-02
 Coeff:      0.154D+00 0.390D+00 0.451D+00
 Gap=     0.193 Goal=   None    Shift=    0.000
 RMSDP=1.65D-06 MaxDP=1.77D-04 DE=-6.84D-08 OVMax= 2.35D-05

 Cycle  10  Pass 1  IDiag  1:
 E= -880.922962007026     Delta-E=       -0.000000012623 Rises=F Damp=F
 DIIS: error= 1.45D-06 at cycle  10 NSaved=  10.
 NSaved=10 IEnMin=10 EnMin= -880.922962007026     IErMin=10 ErrMin= 1.45D-06
 ErrMax= 1.45D-06  0.00D+00 EMaxC= 1.00D-01 BMatC= 1.91D-09 BMatP= 1.90D-08
 IDIUse=1 WtCom= 1.00D+00 WtEn= 0.00D+00
 Coeff-Com:  0.445D-04-0.990D-04-0.451D-03-0.840D-03-0.288D-02-0.189D-02
 Coeff-Com:  0.351D-01 0.110D+00 0.266D+00 0.596D+00
 Coeff:      0.445D-04-0.990D-04-0.451D-03-0.840D-03-0.288D-02-0.189D-02
 Coeff:      0.351D-01 0.110D+00 0.266D+00 0.596D+00
 Gap=     0.193 Goal=   None    Shift=    0.000
 RMSDP=7.59D-07 MaxDP=9.91D-05 DE=-1.26D-08 OVMax= 6.53D-06

 Cycle  11  Pass 1  IDiag  1:
 E= -880.922962008417     Delta-E=       -0.000000001392 Rises=F Damp=F
 DIIS: error= 2.15D-07 at cycle  11 NSaved=  11.
 NSaved=11 IEnMin=11 EnMin= -880.922962008417     IErMin=11 ErrMin= 2.15D-07
 ErrMax= 2.15D-07  0.00D+00 EMaxC= 1.00D-01 BMatC= 7.64D-11 BMatP= 1.91D-09
 IDIUse=1 WtCom= 1.00D+00 WtEn= 0.00D+00
 Coeff-Com:  0.141D-04-0.285D-04-0.153D-03-0.311D-03-0.122D-02-0.132D-02
 Coeff-Com:  0.615D-02 0.231D-01 0.886D-01 0.264D+00 0.621D+00
 Coeff:      0.141D-04-0.285D-04-0.153D-03-0.311D-03-0.122D-02-0.132D-02
 Coeff:      0.615D-02 0.231D-01 0.886D-01 0.264D+00 0.621D+00
 Gap=     0.193 Goal=   None    Shift=    0.000
 RMSDP=9.23D-08 MaxDP=1.09D-05 DE=-1.39D-09 OVMax= 1.40D-06

 Cycle  12  Pass 1  IDiag  1:
 E= -880.922962008474     Delta-E=       -0.000000000057 Rises=F Damp=F
 DIIS: error= 9.03D-08 at cycle  12 NSaved=  12.
 NSaved=12 IEnMin=12 EnMin= -880.922962008474     IErMin=12 ErrMin= 9.03D-08
 ErrMax= 9.03D-08  0.00D+00 EMaxC= 1.00D-01 BMatC= 8.95D-12 BMatP= 7.64D-11
 IDIUse=1 WtCom= 1.00D+00 WtEn= 0.00D+00
 Coeff-Com:  0.103D-05-0.101D-05-0.191D-04-0.456D-04-0.225D-03-0.350D-03
 Coeff-Com: -0.128D-02-0.218D-02 0.101D-01 0.557D-01 0.296D+00 0.642D+00
 Coeff:      0.103D-05-0.101D-05-0.191D-04-0.456D-04-0.225D-03-0.350D-03
 Coeff:     -0.128D-02-0.218D-02 0.101D-01 0.557D-01 0.296D+00 0.642D+00
 Gap=     0.193 Goal=   None    Shift=    0.000
 RMSDP=4.26D-08 MaxDP=5.27D-06 DE=-5.68D-11 OVMax= 4.19D-07

 Cycle  13  Pass 1  IDiag  1:
 E= -880.922962008494     Delta-E=       -0.000000000020 Rises=F Damp=F
 DIIS: error= 2.13D-08 at cycle  13 NSaved=  13.
 NSaved=13 IEnMin=13 EnMin= -880.922962008494     IErMin=13 ErrMin= 2.13D-08
 ErrMax= 2.13D-08  0.00D+00 EMaxC= 1.00D-01 BMatC= 5.92D-13 BMatP= 8.95D-12
 IDIUse=1 WtCom= 1.00D+00 WtEn= 0.00D+00
 Coeff-Com: -0.320D-06 0.110D-05 0.216D-06-0.194D-05-0.234D-04-0.542D-04
 Coeff-Com: -0.907D-03-0.204D-02-0.118D-02 0.718D-02 0.838D-01 0.278D+00
 Coeff-Com:  0.635D+00
 Coeff:     -0.320D-06 0.110D-05 0.216D-06-0.194D-05-0.234D-04-0.542D-04
 Coeff:     -0.907D-03-0.204D-02-0.118D-02 0.718D-02 0.838D-01 0.278D+00
 Coeff:      0.635D+00
 Gap=     0.193 Goal=   None    Shift=    0.000
 RMSDP=1.51D-08 MaxDP=1.61D-06 DE=-2.00D-11 OVMax= 1.12D-07

 Cycle  14  Pass 1  IDiag  1:
 E= -880.922962008519     Delta-E=       -0.000000000025 Rises=F Damp=F
 DIIS: error= 1.07D-08 at cycle  14 NSaved=  14.
 NSaved=14 IEnMin=14 EnMin= -880.922962008519     IErMin=14 ErrMin= 1.07D-08
 ErrMax= 1.07D-08  0.00D+00 EMaxC= 1.00D-01 BMatC= 9.96D-14 BMatP= 5.92D-13
 IDIUse=1 WtCom= 1.00D+00 WtEn= 0.00D+00
 Coeff-Com: -0.295D-06 0.737D-06 0.223D-05 0.369D-05 0.108D-04 0.774D-05
 Coeff-Com: -0.410D-03-0.954D-03-0.189D-02-0.230D-02 0.150D-01 0.854D-01
 Coeff-Com:  0.340D+00 0.565D+00
 Coeff:     -0.295D-06 0.737D-06 0.223D-05 0.369D-05 0.108D-04 0.774D-05
 Coeff:     -0.410D-03-0.954D-03-0.189D-02-0.230D-02 0.150D-01 0.854D-01
 Coeff:      0.340D+00 0.565D+00
 Gap=     0.193 Goal=   None    Shift=    0.000
 RMSDP=2.64D-08 MaxDP=4.15D-06 DE=-2.50D-11 OVMax= 3.95D-08

 Cycle  15  Pass 1  IDiag  1:
 E= -880.922962008479     Delta-E=        0.000000000040 Rises=F Damp=F
 DIIS: error= 1.77D-09 at cycle  15 NSaved=  15.
 NSaved=15 IEnMin=14 EnMin= -880.922962008519     IErMin=15 ErrMin= 1.77D-09
 ErrMax= 1.77D-09  0.00D+00 EMaxC= 1.00D-01 BMatC= 4.31D-15 BMatP= 9.96D-14
 IDIUse=1 WtCom= 1.00D+00 WtEn= 0.00D+00
 Coeff-Com: -0.721D-07 0.161D-06 0.780D-06 0.149D-05 0.608D-05 0.874D-05
 Coeff-Com: -0.659D-04-0.136D-03-0.549D-03-0.155D-02-0.221D-02 0.482D-02
 Coeff-Com:  0.695D-01 0.218D+00 0.712D+00
 Coeff:     -0.721D-07 0.161D-06 0.780D-06 0.149D-05 0.608D-05 0.874D-05
 Coeff:     -0.659D-04-0.136D-03-0.549D-03-0.155D-02-0.221D-02 0.482D-02
 Coeff:      0.695D-01 0.218D+00 0.712D+00
 Gap=     0.193 Goal=   None    Shift=    0.000
 RMSDP=2.63D-08 MaxDP=4.42D-06 DE= 4.00D-11 OVMax= 1.44D-08

 Cycle  16  Pass 1  IDiag  1:
 E= -880.922962008497     Delta-E=       -0.000000000017 Rises=F Damp=F
 DIIS: error= 4.63D-10 at cycle  16 NSaved=  16.
 NSaved=16 IEnMin=14 EnMin= -880.922962008519     IErMin=16 ErrMin= 4.63D-10
 ErrMax= 4.63D-10  0.00D+00 EMaxC= 1.00D-01 BMatC= 2.56D-16 BMatP= 4.31D-15
 IDIUse=1 WtCom= 1.00D+00 WtEn= 0.00D+00
 Large coefficients: NSaved= 16 BigCof=    0.00 CofMax=   10.00 Det=-2.26D-15
 Inversion failed.  Reducing to 15 matrices.
 Coeff-Com: -0.258D-08 0.784D-07 0.167D-06 0.924D-06 0.222D-05 0.114D-05
 Coeff-Com:  0.133D-04-0.621D-04-0.378D-03-0.148D-02-0.334D-02 0.486D-02
 Coeff-Com:  0.408D-01 0.250D+00 0.710D+00
 Coeff:     -0.258D-08 0.784D-07 0.167D-06 0.924D-06 0.222D-05 0.114D-05
 Coeff:      0.133D-04-0.621D-04-0.378D-03-0.148D-02-0.334D-02 0.486D-02
 Coeff:      0.408D-01 0.250D+00 0.710D+00
 Gap=     0.193 Goal=   None    Shift=    0.000
 RMSDP=8.21D-09 MaxDP=1.06D-06 DE=-1.73D-11 OVMax= 2.94D-09

 Cycle  17  Pass 1  IDiag  1:
 E= -880.922962008493     Delta-E=        0.000000000004 Rises=F Damp=F
 DIIS: error= 2.60D-10 at cycle  17 NSaved=  16.
 NSaved=16 IEnMin=13 EnMin= -880.922962008519     IErMin=16 ErrMin= 2.60D-10
 ErrMax= 2.60D-10  0.00D+00 EMaxC= 1.00D-01 BMatC= 5.81D-17 BMatP= 2.56D-16
 IDIUse=1 WtCom= 1.00D+00 WtEn= 0.00D+00
 Large coefficients: NSaved= 16 BigCof=    0.00 CofMax=   10.00 Det=-3.85D-16
 Inversion failed.  Reducing to 15 matrices.
 Coeff-Com:  0.199D-07 0.538D-07 0.172D-06 0.534D-06 0.467D-05 0.121D-04
 Coeff-Com:  0.901D-05-0.616D-04-0.481D-03-0.192D-02-0.407D-02-0.283D-02
 Coeff-Com:  0.451D-01 0.357D+00 0.607D+00
 Coeff:      0.199D-07 0.538D-07 0.172D-06 0.534D-06 0.467D-05 0.121D-04
 Coeff:      0.901D-05-0.616D-04-0.481D-03-0.192D-02-0.407D-02-0.283D-02
 Coeff:      0.451D-01 0.357D+00 0.607D+00
 Gap=     0.193 Goal=   None    Shift=    0.000
 RMSDP=1.57D-08 MaxDP=2.88D-06 DE= 4.09D-12 OVMax= 1.45D-09

 Cycle  18  Pass 1  IDiag  1:
 E= -880.922962008479     Delta-E=        0.000000000013 Rises=F Damp=F
 DIIS: error= 1.48D-10 at cycle  18 NSaved=  16.
 NSaved=16 IEnMin=12 EnMin= -880.922962008519     IErMin=16 ErrMin= 1.48D-10
 ErrMax= 1.48D-10  0.00D+00 EMaxC= 1.00D-01 BMatC= 3.64D-18 BMatP= 5.81D-17
 IDIUse=1 WtCom= 1.00D+00 WtEn= 0.00D+00
 Large coefficients: NSaved= 16 BigCof=    0.00 CofMax=   10.00 Det=-4.06D-17
 Inversion failed.  Reducing to 15 matrices.
 Coeff-Com:  0.711D-08-0.193D-07 0.530D-07 0.206D-05 0.474D-05 0.106D-04
 Coeff-Com:  0.686D-05-0.809D-04-0.566D-03-0.223D-02-0.448D-02 0.108D-02
 Coeff-Com:  0.999D-01 0.249D+00 0.657D+00
 Coeff:      0.711D-08-0.193D-07 0.530D-07 0.206D-05 0.474D-05 0.106D-04
 Coeff:      0.686D-05-0.809D-04-0.566D-03-0.223D-02-0.448D-02 0.108D-02
 Coeff:      0.999D-01 0.249D+00 0.657D+00
 Gap=     0.193 Goal=   None    Shift=    0.000
 RMSDP=8.87D-09 MaxDP=1.48D-06 DE= 1.32D-11 OVMax= 3.84D-10

 Cycle  19  Pass 1  IDiag  1:
 E= -880.922962008504     Delta-E=       -0.000000000025 Rises=F Damp=F
 DIIS: error= 1.97D-10 at cycle  19 NSaved=  16.
 NSaved=16 IEnMin=11 EnMin= -880.922962008519     IErMin=15 ErrMin= 1.48D-10
 ErrMax= 1.97D-10  0.00D+00 EMaxC= 1.00D-01 BMatC= 3.16D-18 BMatP= 3.64D-18
 IDIUse=1 WtCom= 1.00D+00 WtEn= 0.00D+00
 Large coefficients: NSaved= 16 BigCof=    0.00 CofMax=   10.00 Det=-5.34D-18
 Inversion failed.  Reducing to 15 matrices.
 Coeff-Com: -0.433D-07-0.143D-07 0.106D-05 0.256D-05 0.639D-05 0.181D-05
 Coeff-Com: -0.614D-04-0.419D-03-0.164D-02-0.330D-02 0.112D-02 0.786D-01
 Coeff-Com:  0.196D+00 0.478D+00 0.252D+00
 Coeff:     -0.433D-07-0.143D-07 0.106D-05 0.256D-05 0.639D-05 0.181D-05
 Coeff:     -0.614D-04-0.419D-03-0.164D-02-0.330D-02 0.112D-02 0.786D-01
 Coeff:      0.196D+00 0.478D+00 0.252D+00
 Gap=     0.193 Goal=   None    Shift=    0.000
 RMSDP=4.47D-09 MaxDP=7.51D-07 DE=-2.46D-11 OVMax= 1.36D-10

 SCF Done:  E(RPBE1PBE) =  -880.922962009     A.U. after   19 cycles
            NFock= 19  Conv=0.45D-08     -V/T= 2.0043
 KE= 8.771289241441D+02 PE=-4.897353739053D+03 EE= 1.712053747661D+03
 Leave Link  502 at Tue Oct 24 12:49:56 2017, MaxMem= 13421772800 cpu:      1177.3
 (Enter /share/apps//g09/l601.exe)
 Copying SCF densities to generalized density rwf, IOpCl= 0 IROHF=0.

 **********************************************************************

            Population analysis using the SCF density.

 **********************************************************************

 Orbital symmetries:
       Occupied  (A) (A) (A) (A) (A) (A) (A) (A) (A) (A) (A) (A)
                 (A) (A) (A) (A) (A) (A) (A) (A) (A) (A) (A) (A)
                 (A) (A) (A) (A) (A) (A) (A) (A) (A) (A) (A) (A)
                 (A) (A) (A) (A) (A) (A) (A) (A) (A) (A) (A) (A)
                 (A) (A) (A) (A) (A) (A) (A) (A) (A) (A) (A) (A)
                 (A) (A) (A) (A) (A) (A)
       Virtual   (A) (A) (A) (A) (A) (A) (A) (A) (A) (A) (A) (A)
                 (A) (A) (A) (A) (A) (A) (A) (A) (A) (A) (A) (A)
                 (A) (A) (A) (A) (A) (A) (A) (A) (A) (A) (A) (A)
                 (A) (A) (A) (A) (A) (A) (A) (A) (A) (A) (A) (A)
                 (A) (A) (A) (A) (A) (A) (A) (A) (A) (A) (A) (A)
                 (A) (A) (A) (A) (A) (A) (A) (A) (A) (A) (A) (A)
                 (A) (A) (A) (A) (A) (A) (A) (A) (A) (A) (A) (A)
                 (A) (A) (A) (A) (A) (A) (A) (A) (A) (A) (A) (A)
                 (A) (A) (A) (A) (A) (A) (A) (A) (A) (A) (A) (A)
                 (A) (A) (A) (A) (A) (A) (A) (A) (A) (A) (A) (A)
                 (A) (A) (A) (A) (A) (A) (A) (A) (A) (A) (A) (A)
                 (A) (A) (A) (A) (A) (A) (A) (A) (A) (A) (A) (A)
                 (A) (A) (A) (A) (A) (A) (A) (A) (A) (A) (A) (A)
                 (A) (A) (A) (A) (A) (A) (A) (A) (A) (A) (A) (A)
                 (A) (A) (A) (A) (A) (A) (A) (A) (A) (A) (A) (A)
                 (A) (A) (A) (A) (A) (A) (A) (A) (A) (A) (A) (A)
                 (A) (A) (A) (A) (A) (A) (A) (A) (A) (A) (A) (A)
                 (A) (A) (A) (A) (A) (A) (A) (A) (A) (A) (A) (A)
                 (A) (A) (A) (A) (A) (A) (A) (A) (A) (A) (A) (A)
                 (A) (A) (A) (A) (A) (A) (A) (A) (A) (A) (A) (A)
                 (A) (A) (A) (A) (A) (A) (A) (A) (A) (A) (A) (A)
                 (A) (A) (A) (A) (A) (A) (A) (A) (A) (A) (A) (A)
                 (A) (A) (A) (A) (A) (A) (A) (A) (A) (A) (A) (A)
                 (A) (A) (A) (A) (A) (A) (A) (A) (A) (A) (A) (A)
                 (A) (A) (A) (A) (A) (A) (A) (A) (A) (A) (A) (A)
                 (A) (A) (A) (A) (A) (A) (A) (A) (A) (A) (A) (A)
                 (A) (A) (A) (A) (A) (A) (A) (A) (A) (A) (A) (A)
                 (A) (A) (A) (A) (A) (A) (A) (A) (A) (A) (A) (A)
                 (A) (A) (A) (A) (A) (A) (A) (A) (A) (A) (A) (A)
                 (A) (A) (A) (A) (A) (A) (A) (A) (A) (A) (A) (A)
                 (A) (A) (A) (A) (A) (A) (A) (A) (A) (A) (A) (A)
                 (A) (A) (A) (A) (A) (A) (A) (A) (A) (A) (A) (A)
                 (A) (A) (A) (A) (A) (A) (A) (A) (A) (A) (A) (A)
                 (A) (A) (A) (A) (A) (A) (A) (A) (A) (A) (A) (A)
                 (A) (A) (A) (A) (A) (A) (A) (A) (A) (A) (A) (A)
                 (A) (A)
 The electronic state is 1-A.
 Alpha  occ. eigenvalues --  -19.44911 -19.43751 -19.40896 -19.36391 -19.36215
 Alpha  occ. eigenvalues --  -19.32729 -10.56888 -10.51428 -10.47022 -10.44809
 Alpha  occ. eigenvalues --  -10.44643 -10.44496 -10.40815 -10.39423 -10.39188
 Alpha  occ. eigenvalues --  -10.38778 -10.36423  -1.34838  -1.28033  -1.25957
 Alpha  occ. eigenvalues --   -1.22284  -1.21047  -1.18444  -1.01388  -0.97765
 Alpha  occ. eigenvalues --   -0.94717  -0.89583  -0.87350  -0.85526  -0.82545
 Alpha  occ. eigenvalues --   -0.80501  -0.78567  -0.76993  -0.76532  -0.72428
 Alpha  occ. eigenvalues --   -0.70664  -0.68159  -0.67295  -0.66696  -0.65933
 Alpha  occ. eigenvalues --   -0.63906  -0.63242  -0.62933  -0.61422  -0.61040
 Alpha  occ. eigenvalues --   -0.60020  -0.59312  -0.58253  -0.57847  -0.57253
 Alpha  occ. eigenvalues --   -0.56911  -0.56448  -0.55457  -0.54345  -0.53818
 Alpha  occ. eigenvalues --   -0.52447  -0.51997  -0.51806  -0.49135  -0.48574
 Alpha  occ. eigenvalues --   -0.47882  -0.47364  -0.45412  -0.43150  -0.41949
 Alpha  occ. eigenvalues --   -0.39167
 Alpha virt. eigenvalues --   -0.19850  -0.13393  -0.11840  -0.10019  -0.09512
 Alpha virt. eigenvalues --   -0.08722  -0.08169  -0.07318  -0.06746  -0.06434
 Alpha virt. eigenvalues --   -0.06319  -0.05870  -0.05760  -0.04736  -0.04408
 Alpha virt. eigenvalues --   -0.04113  -0.03645  -0.03069  -0.02697  -0.02332
 Alpha virt. eigenvalues --   -0.02118  -0.01866  -0.01482  -0.00975  -0.00518
 Alpha virt. eigenvalues --   -0.00087   0.00176   0.00832   0.01315   0.01395
 Alpha virt. eigenvalues --    0.01722   0.02374   0.02589   0.03110   0.03508
 Alpha virt. eigenvalues --    0.03889   0.04314   0.04521   0.04708   0.04993
 Alpha virt. eigenvalues --    0.05586   0.05962   0.06418   0.06921   0.07088
 Alpha virt. eigenvalues --    0.07464   0.07730   0.07988   0.08744   0.08976
 Alpha virt. eigenvalues --    0.09356   0.09601   0.09838   0.10523   0.10863
 Alpha virt. eigenvalues --    0.10954   0.11469   0.11887   0.12156   0.12677
 Alpha virt. eigenvalues --    0.12848   0.13320   0.13587   0.14217   0.14518
 Alpha virt. eigenvalues --    0.14767   0.15197   0.15251   0.15910   0.16306
 Alpha virt. eigenvalues --    0.16656   0.17201   0.17538   0.18677   0.19035
 Alpha virt. eigenvalues --    0.19381   0.19617   0.19949   0.20269   0.20823
 Alpha virt. eigenvalues --    0.21445   0.22124   0.22303   0.22789   0.23053
 Alpha virt. eigenvalues --    0.23724   0.24392   0.24892   0.25144   0.25750
 Alpha virt. eigenvalues --    0.25911   0.26686   0.27407   0.27983   0.28377
 Alpha virt. eigenvalues --    0.28842   0.29845   0.30235   0.30521   0.31339
 Alpha virt. eigenvalues --    0.31835   0.32727   0.32896   0.33549   0.34648
 Alpha virt. eigenvalues --    0.35697   0.35928   0.36289   0.36935   0.38241
 Alpha virt. eigenvalues --    0.39557   0.40185   0.40705   0.41704   0.42145
 Alpha virt. eigenvalues --    0.43591   0.43802   0.44277   0.44936   0.45792
 Alpha virt. eigenvalues --    0.46590   0.47182   0.48058   0.48442   0.49280
 Alpha virt. eigenvalues --    0.50015   0.50102   0.50901   0.51755   0.52766
 Alpha virt. eigenvalues --    0.53562   0.54856   0.55633   0.56353   0.56622
 Alpha virt. eigenvalues --    0.56925   0.57186   0.57884   0.58545   0.58965
 Alpha virt. eigenvalues --    0.59263   0.59808   0.60041   0.60908   0.62113
 Alpha virt. eigenvalues --    0.62432   0.63133   0.63335   0.63939   0.64859
 Alpha virt. eigenvalues --    0.65466   0.65672   0.67390   0.68965   0.69476
 Alpha virt. eigenvalues --    0.70220   0.71503   0.76040   0.78638   0.80396
 Alpha virt. eigenvalues --    0.83245   0.85386   0.86892   0.87234   0.88538
 Alpha virt. eigenvalues --    0.91169   0.91769   0.94400   0.94786   0.95681
 Alpha virt. eigenvalues --    0.96949   0.97284   0.98939   0.99960   1.00559
 Alpha virt. eigenvalues --    1.01609   1.02392   1.04815   1.06666   1.06949
 Alpha virt. eigenvalues --    1.07918   1.09734   1.10615   1.12421   1.13367
 Alpha virt. eigenvalues --    1.15101   1.15986   1.16761   1.18710   1.20249
 Alpha virt. eigenvalues --    1.21983   1.22083   1.22698   1.24170   1.25462
 Alpha virt. eigenvalues --    1.26191   1.27362   1.27617   1.29375   1.30602
 Alpha virt. eigenvalues --    1.31585   1.32301   1.33605   1.33755   1.34363
 Alpha virt. eigenvalues --    1.35084   1.35548   1.36655   1.39869   1.40235
 Alpha virt. eigenvalues --    1.40668   1.42751   1.43461   1.43850   1.44101
 Alpha virt. eigenvalues --    1.44767   1.45689   1.46251   1.46526   1.46686
 Alpha virt. eigenvalues --    1.46831   1.47936   1.48484   1.49540   1.49819
 Alpha virt. eigenvalues --    1.51871   1.52362   1.53156   1.54130   1.55261
 Alpha virt. eigenvalues --    1.56102   1.57257   1.57770   1.57821   1.59634
 Alpha virt. eigenvalues --    1.60172   1.60478   1.61431   1.62017   1.62818
 Alpha virt. eigenvalues --    1.63667   1.64387   1.65771   1.66649   1.67430
 Alpha virt. eigenvalues --    1.68772   1.70529   1.71952   1.73710   1.74787
 Alpha virt. eigenvalues --    1.76670   1.77925   1.78357   1.80696   1.81595
 Alpha virt. eigenvalues --    1.83396   1.84238   1.86444   1.88187   1.89174
 Alpha virt. eigenvalues --    1.89874   1.90751   1.91944   1.92701   1.94632
 Alpha virt. eigenvalues --    1.96315   1.98934   2.00474   2.01755   2.01876
 Alpha virt. eigenvalues --    2.03577   2.04313   2.05796   2.06418   2.07580
 Alpha virt. eigenvalues --    2.09305   2.09780   2.10363   2.11247   2.12297
 Alpha virt. eigenvalues --    2.14490   2.17084   2.18824   2.21280   2.22045
 Alpha virt. eigenvalues --    2.25740   2.32157   2.32924   2.33543   2.33863
 Alpha virt. eigenvalues --    2.34278   2.37681   2.38828   2.39262   2.39783
 Alpha virt. eigenvalues --    2.40482   2.40945   2.41990   2.42673   2.43429
 Alpha virt. eigenvalues --    2.43992   2.44433   2.45283   2.45708   2.46754
 Alpha virt. eigenvalues --    2.47206   2.47724   2.48812   2.49386   2.51302
 Alpha virt. eigenvalues --    2.54616   2.55800   2.57736   2.59089   2.59925
 Alpha virt. eigenvalues --    2.63298   2.64632   2.67671   2.69301   2.71368
 Alpha virt. eigenvalues --    2.71545   2.73625   2.76158   2.76930   2.77819
 Alpha virt. eigenvalues --    2.78453   2.79107   2.82754   2.84254   2.87188
 Alpha virt. eigenvalues --    2.89075   2.89631   2.92069   2.92804   2.93754
 Alpha virt. eigenvalues --    2.94186   2.95960   2.97100   2.98509   2.99251
 Alpha virt. eigenvalues --    3.02185   3.02764   3.03234   3.05131   3.05648
 Alpha virt. eigenvalues --    3.07516   3.08702   3.09686   3.10337   3.11872
 Alpha virt. eigenvalues --    3.14058   3.14981   3.16489   3.19502   3.21397
 Alpha virt. eigenvalues --    3.22895   3.27321   3.31612   3.37446   3.39068
 Alpha virt. eigenvalues --    3.48723   3.57747   3.65634   3.67070   3.67265
 Alpha virt. eigenvalues --    3.67782   3.68646   3.70861   3.71035   3.71672
 Alpha virt. eigenvalues --    3.72129   3.76656   3.81603   3.85601   3.89520
 Alpha virt. eigenvalues --    3.93615   3.94574   3.97272   4.01174   4.01801
 Alpha virt. eigenvalues --    4.02733   4.06927   4.07710   4.09341   4.12686
 Alpha virt. eigenvalues --    4.19531   4.25606   4.95225   4.97429   4.99164
 Alpha virt. eigenvalues --    5.02857   5.04562   5.05848   5.13547   5.21230
 Alpha virt. eigenvalues --    5.27433   5.31277   5.33387   5.34523   5.46914
 Alpha virt. eigenvalues --    5.58395   5.59585   5.60796   5.64159   5.80682
 Alpha virt. eigenvalues --   23.68774  23.72676  23.75630  23.78295  23.80666
 Alpha virt. eigenvalues --   23.81800  23.88339  23.89319  23.89971  23.90653
 Alpha virt. eigenvalues --   23.91226  49.89217  49.90280  49.95178  49.96063
 Alpha virt. eigenvalues --   49.97708  50.01004
          Condensed to atoms (all electrons):
               1          2          3          4          5          6
     1  C   13.652611  -6.753548   2.003325  -2.308318  -1.305133   1.234862
     2  C   -6.753548  19.046248  -9.156828   4.616094  -0.943080  -0.577725
     3  C    2.003325  -9.156828  21.852612 -11.560256   3.715197  -2.726161
     4  C   -2.308318   4.616094 -11.560256  21.339705  -8.574448   4.261809
     5  C   -1.305133  -0.943080   3.715197  -8.574448  21.417562  -9.856858
     6  C    1.234862  -0.577725  -2.726161   4.261809  -9.856858  15.140424
     7  O   -0.164128   0.179469  -0.027485   0.004412   0.072146   0.101136
     8  O    0.066519  -0.013237   0.203841  -0.144534  -0.088181  -0.035308
     9  O    0.088913  -0.111773  -0.053208   0.200145  -0.349974   0.396913
    10  O   -0.353818   0.358851   0.065202  -0.010901   0.017938  -0.022741
    11  H    0.329737  -0.019271   0.047542  -0.029761  -0.000668   0.005149
    12  H    0.313050   0.018435  -0.030008   0.038192   0.013098  -0.012151
    13  H   -0.027004   0.219973   0.148001  -0.081186   0.054783  -0.015844
    14  H   -0.021057  -0.018828   0.343453   0.027726   0.039299  -0.018869
    15  H    0.032138  -0.003382   0.083808   0.374486  -0.179744   0.043512
    16  H    0.019398   0.002475   0.044251  -0.019140   0.173020   0.101421
    17  H   -0.029355  -0.028418   0.059869  -0.059888   0.166398   0.243595
    18  O    0.095481   0.043447   0.013700  -0.156502   0.024712   0.075426
    19  C    0.209863  -0.438221   0.027332  -0.014439  -0.030383   0.036380
    20  H    0.039988  -0.008452   0.002246  -0.000726   0.000302  -0.000650
    21  H   -0.030164   0.019137  -0.001891   0.000688   0.000615  -0.001244
    22  H    0.000518  -0.017681   0.000603  -0.000647  -0.000440   0.001896
    23  C    0.021630   0.007061  -0.023129  -0.028138  -0.368317   0.138765
    24  H   -0.001466   0.005146   0.001441  -0.021410  -0.007040   0.015002
    25  H    0.000932  -0.001760   0.000146   0.037696  -0.048421   0.008691
    26  H   -0.000366  -0.001415  -0.002361   0.002416   0.022052   0.002395
    27  C   -0.039471  -0.057853  -0.236622  -0.107049   0.210395  -0.069618
    28  H    0.000995  -0.002807   0.044234  -0.021658  -0.024434  -0.002543
    29  H    0.000256   0.004604  -0.021018  -0.097438   0.069734   0.012139
    30  H   -0.000118   0.001530  -0.009643   0.078951  -0.020059   0.001156
    31  C   -0.330116  -0.021891   0.500158  -0.807258   1.497724  -1.472583
    32  O    0.089508   0.065061   0.079568  -0.097903  -0.427777   0.482184
    33  C   -0.310903  -0.198722   0.549558  -0.282014   0.827219  -1.035423
    34  H    0.000459  -0.004776   0.008206  -0.003615  -0.002698   0.000996
    35  H    0.003266   0.000150  -0.006626  -0.000178  -0.003560   0.004514
    36  H   -0.001461   0.001286  -0.005502   0.003469   0.003130  -0.001847
               7          8          9         10         11         12
     1  C   -0.164128   0.066519   0.088913  -0.353818   0.329737   0.313050
     2  C    0.179469  -0.013237  -0.111773   0.358851  -0.019271   0.018435
     3  C   -0.027485   0.203841  -0.053208   0.065202   0.047542  -0.030008
     4  C    0.004412  -0.144534   0.200145  -0.010901  -0.029761   0.038192
     5  C    0.072146  -0.088181  -0.349974   0.017938  -0.000668   0.013098
     6  C    0.101136  -0.035308   0.396913  -0.022741   0.005149  -0.012151
     7  O    7.754321  -0.002303   0.016051   0.020860  -0.009431   0.011036
     8  O   -0.002303   8.009609   0.022679   0.000252  -0.000266   0.000274
     9  O    0.016051   0.022679   7.880551  -0.003092   0.017739  -0.011077
    10  O    0.020860   0.000252  -0.003092   8.107288  -0.038733  -0.044411
    11  H   -0.009431  -0.000266   0.017739  -0.038733   0.533399  -0.048782
    12  H    0.011036   0.000274  -0.011077  -0.044411  -0.048782   0.556371
    13  H   -0.025601  -0.001255   0.011473   0.012600   0.006474  -0.006407
    14  H    0.006377  -0.002937  -0.060879  -0.000455  -0.001038   0.007009
    15  H   -0.000597  -0.034800   0.005241   0.000146   0.000035  -0.000079
    16  H    0.006129   0.007356   0.004174  -0.000014   0.000008  -0.000009
    17  H   -0.067286  -0.000410  -0.006286   0.000365  -0.000072   0.000055
    18  O    0.013474   0.006367   0.002019  -0.000224   0.000119  -0.000259
    19  C    0.008012   0.000278   0.001934   0.133041   0.005759   0.003044
    20  H   -0.000135   0.000000  -0.000006  -0.057639  -0.000156  -0.000323
    21  H   -0.000227   0.000001  -0.000121  -0.038110  -0.004873   0.012237
    22  H    0.000913  -0.000001   0.000186  -0.042735   0.013988  -0.004277
    23  C   -0.000301   0.006566   0.004061  -0.001416   0.000177  -0.000272
    24  H   -0.000241  -0.000173  -0.000093   0.000000   0.000001   0.000001
    25  H    0.000255   0.000447   0.000060  -0.000001  -0.000000   0.000000
    26  H   -0.000360   0.000034   0.000007  -0.000008  -0.000000   0.000000
    27  C    0.004045   0.111747  -0.001598  -0.000108   0.000126   0.000212
    28  H    0.000011  -0.046419   0.000002  -0.000001   0.000000   0.000000
    29  H   -0.000069  -0.019038   0.000060   0.000000  -0.000000  -0.000000
    30  H   -0.000008  -0.075514  -0.000390   0.000000  -0.000000   0.000000
    31  C    0.027850   0.076516   0.274030   0.003881   0.009438   0.002067
    32  O   -0.070285   0.031362  -0.085516  -0.000504   0.001015  -0.000474
    33  C    0.021193  -0.117262  -0.488640   0.001890  -0.013292   0.002753
    34  H    0.000239  -0.001145  -0.001920   0.000001  -0.000008   0.000001
    35  H    0.000013   0.000729  -0.012233  -0.000013   0.000048   0.000007
    36  H   -0.000256   0.000159   0.016271   0.000001   0.000004   0.000000
              13         14         15         16         17         18
     1  C   -0.027004  -0.021057   0.032138   0.019398  -0.029355   0.095481
     2  C    0.219973  -0.018828  -0.003382   0.002475  -0.028418   0.043447
     3  C    0.148001   0.343453   0.083808   0.044251   0.059869   0.013700
     4  C   -0.081186   0.027726   0.374486  -0.019140  -0.059888  -0.156502
     5  C    0.054783   0.039299  -0.179744   0.173020   0.166398   0.024712
     6  C   -0.015844  -0.018869   0.043512   0.101421   0.243595   0.075426
     7  O   -0.025601   0.006377  -0.000597   0.006129  -0.067286   0.013474
     8  O   -0.001255  -0.002937  -0.034800   0.007356  -0.000410   0.006367
     9  O    0.011473  -0.060879   0.005241   0.004174  -0.006286   0.002019
    10  O    0.012600  -0.000455   0.000146  -0.000014   0.000365  -0.000224
    11  H    0.006474  -0.001038   0.000035   0.000008  -0.000072   0.000119
    12  H   -0.006407   0.007009  -0.000079  -0.000009   0.000055  -0.000259
    13  H    0.419459  -0.001647   0.000857  -0.000312   0.000481  -0.005077
    14  H   -0.001647   0.419242  -0.006569  -0.000038   0.000100  -0.001676
    15  H    0.000857  -0.006569   0.424672   0.001626  -0.000247   0.005094
    16  H   -0.000312  -0.000038   0.001626   0.487608  -0.007565  -0.029085
    17  H    0.000481   0.000100  -0.000247  -0.007565   0.445898  -0.009239
    18  O   -0.005077  -0.001676   0.005094  -0.029085  -0.009239   7.886957
    19  C   -0.000375   0.000489   0.000069   0.000067  -0.000130   0.000783
    20  H   -0.000100  -0.000003   0.000000   0.000000   0.000000   0.000000
    21  H   -0.000035   0.000035   0.000000  -0.000000   0.000001  -0.000000
    22  H    0.000138  -0.000004   0.000000   0.000000   0.000000   0.000003
    23  C   -0.000526  -0.000359   0.006751   0.008221  -0.007898   0.169322
    24  H    0.000089  -0.000002   0.000009  -0.003915   0.000968  -0.041343
    25  H   -0.000010  -0.000002   0.000081   0.014206  -0.000739  -0.032600
    26  H   -0.000054  -0.000001  -0.000111   0.000135  -0.000188  -0.054962
    27  C    0.001148   0.001677  -0.002055   0.006958   0.000535  -0.008816
    28  H    0.000017  -0.000276   0.011407  -0.000072  -0.000006   0.001502
    29  H   -0.000015   0.000083  -0.001914   0.006912   0.000022  -0.003751
    30  H   -0.000004  -0.000051  -0.000354  -0.000581  -0.000004   0.000083
[...]
 0018664,-0.00011058,0.00013768,0.00000890,-0.00018757,0.00026314,0.000
 07437,0.00033979,-0.00078208,-0.00065079,-0.00002922,-0.00055835,0.000
 24837,0.00019646,0.00002633,0.00002526,-0.00018772,-0.00001622,-0.0000
 2821,-0.00256632,-0.00095511,0.00144944,0.00033596,-0.00006105,-0.0002
 7225,0.00112338,-0.00041586,-0.00029654,0.00038545,0.00029798,0.000007
 83,0.04794387,0.05827589,0.77297809,-0.00010331,0.00014202,-0.00052343
 ,0.00088358,-0.00040214,0.00129474,-0.00566008,0.00239713,-0.00258845,
 0.00111978,0.00064057,0.00478544,-0.00375664,0.03446899,-0.00951712,-0
 .06144212,-0.00513121,0.00240588,0.01407353,-0.01622061,0.00360248,-0.
 00310876,-0.00228922,-0.00311028,0.03119439,0.00525069,0.01760543,-0.0
 0003041,-0.00040404,0.00011588,0.00019851,0.00010027,-0.00005644,0.000
 06391,-0.00001378,-0.00018464,-0.00053310,-0.00050134,0.00030168,0.000
 96729,-0.00090239,0.00021927,0.00069877,0.00028705,-0.00019699,0.00095
 327,-0.00021968,0.00001942,0.00207531,0.00130626,-0.00068540,-0.010555
 69,0.00349583,-0.00447008,-0.00006459,0.00003271,-0.00002422,-0.000009
 19,-0.00001240,0.00001021,-0.00000468,0.00000560,-0.00000747,0.0000273
 6,0.00000338,0.00002202,-0.00006772,-0.00369186,-0.00252850,0.00064732
 ,-0.00007616,0.00048667,-0.00001724,0.00023841,0.00030789,-0.00002697,
 0.00040634,0.00030597,0.00063170,0.00021021,-0.00069391,-0.00036244,-0
 .00002686,0.00002675,0.00022627,-0.00004873,-0.00003570,-0.00005907,-0
 .00002001,0.00001587,-0.09856471,0.08994725,0.03346268,0.12671844,0.00
 133590,-0.00066561,0.00148988,-0.00469879,-0.00880642,-0.01729176,0.00
 998884,-0.01293341,0.01645371,-0.00350083,-0.00270418,-0.00393745,0.00
 099945,-0.02162598,0.00361478,0.01578130,-0.00272211,-0.04166544,-0.02
 801424,-0.02479009,0.06245753,-0.00094014,0.00367305,-0.00112470,0.000
 21414,0.00409482,-0.07087218,-0.00082711,0.00134581,0.00062015,-0.0006
 2488,-0.00029783,-0.00052986,-0.00057347,-0.00007649,0.00113967,0.0021
 6383,0.00278577,0.00283054,-0.00122643,0.00237959,-0.00076322,-0.00127
 760,0.00055163,0.00146742,0.00053976,0.00011657,0.00010478,0.01756269,
 -0.03533448,0.01555401,0.00813809,-0.00046395,0.00304634,0.00102582,0.
 00015799,-0.00038975,-0.00001961,-0.00002508,-0.00004054,-0.00010805,0
 .00006330,0.00022193,-0.00012719,-0.00001558,-0.00008521,-0.00084086,0
 .00229230,0.00185203,-0.00019985,0.00094998,-0.00023561,-0.00004323,-0
 .00006831,-0.00027587,0.00025543,-0.00005045,0.00007692,0.00105478,0.0
 0024775,-0.00109386,-0.00030802,0.00000712,0.00008194,-0.00045434,0.00
 008918,0.00038722,0.00014159,0.00008851,0.00006288,0.09555809,-0.34284
 374,-0.11698004,-0.13322835,0.48793531,-0.00057559,-0.00046269,0.00086
 987,-0.00314800,0.00208646,0.00051796,0.00854530,-0.00763761,0.0093491
 4,0.00124101,0.00035932,-0.00237576,-0.00986844,0.01236539,-0.00359040
 ,-0.00204582,-0.00472841,-0.07613271,0.00379425,0.03510104,-0.01999097
 ,-0.00168266,0.00031558,0.00155674,0.01300010,-0.05732150,-0.06987987,
 0.00097800,0.00089734,-0.00061423,-0.00031208,-0.00003099,-0.00009438,
 -0.00000437,0.00001693,0.00020074,0.00032584,0.00018790,-0.00070708,-0
 .00085096,0.00072010,0.00009352,-0.00021110,0.00033304,0.00125545,-0.0
 0136073,-0.00029858,0.00077195,0.00593284,-0.01479497,0.00838107,-0.00
 117298,0.00001512,0.00228536,-0.00075813,-0.00002577,0.00033627,0.0000
 6343,0.00005949,-0.00005397,0.00009182,-0.00005707,-0.00004929,0.00009
 502,-0.00009128,-0.00001900,-0.00051023,-0.00087519,-0.00051404,0.0003
 8727,0.00035650,-0.00008079,-0.00022714,0.00010261,0.00011037,0.000175
 15,0.00025874,0.00024987,0.00057157,-0.00000656,-0.00061088,-0.0000899
 2,0.00002749,0.00012727,-0.00030489,0.00015374,0.00007301,-0.00009633,
 -0.00008413,-0.00002573,0.04168575,-0.14042718,-0.21817340,-0.04786370
 ,0.16683935,0.35254853,-0.00018610,0.00004527,-0.00005213,-0.00054351,
 0.00133576,-0.00008997,0.00450005,0.00304429,-0.00003388,0.00062324,-0
 .00065596,0.00071836,-0.00024274,-0.00098850,0.00056050,0.00640634,-0.
 00060895,0.00259738,0.00060211,0.00096086,-0.00270286,-0.00012281,0.00
 009957,-0.00018557,0.00556303,0.00537237,-0.00924113,0.00006985,-0.000
 01943,-0.00000521,0.00004128,-0.00002037,-0.00001502,0.00006540,-0.000
 01057,0.00000245,0.00012258,0.00011988,-0.00004250,0.00040280,-0.00046
 319,0.00024457,0.00016782,0.00005698,-0.00029186,-0.00011468,-0.000028
 56,-0.00007287,-0.00055997,0.00076955,-0.00036365,0.00052076,-0.000298
 34,0.00030030,-0.00003861,-0.00000098,-0.00001413,0.00000318,0.0000020
 4,0.00000171,0.00000955,-0.00000260,0.00000156,0.00001602,-0.00000618,
 -0.00000196,-0.00003143,0.00020449,0.00011843,-0.00004509,-0.00003419,
 -0.00003706,0.00000830,-0.00001162,-0.00001384,-0.00000583,-0.00002384
 ,-0.00002746,0.00005109,0.00005375,0.00000118,-0.00001316,-0.00000842,
 -0.00000498,0.00000306,-0.00000567,0.00001724,0.00000508,0.00001756,0.
 00000893,-0.11304784,0.05304620,-0.02911421,0.00615419,0.01764949,-0.0
 0689406,0.54802771,0.00007137,0.00021353,-0.00013987,-0.00088799,0.000
 13031,-0.00166472,0.00152360,0.00459737,-0.00436589,0.00054441,-0.0013
 9162,0.00070500,-0.00083452,-0.00104058,0.00024942,0.00138957,0.009328
 74,-0.00546444,-0.00135515,-0.00051416,0.00252271,0.00015808,0.0005859
 5,0.00008634,0.00146309,0.00394082,0.01118773,-0.00029028,-0.00017063,
 0.00025349,0.00008121,-0.00002293,-0.00002719,-0.00002594,-0.00001993,
 0.00008836,0.00024105,0.00021599,0.00018316,0.00005097,0.00006598,-0.0
 0007684,0.00021424,-0.00004348,-0.00022312,-0.00007531,0.00002201,-0.0
 0000662,0.00029528,-0.00039955,0.00026995,0.00111324,-0.00080378,0.000
 39492,0.00027385,-0.00000027,-0.00015546,-0.00001717,-0.00001905,0.000
 01087,-0.00001781,0.00002165,0.00003493,-0.00002045,0.00002069,-0.0000
 0807,-0.00016790,0.00046035,0.00036747,-0.00002167,0.00002872,-0.00007
 366,-0.00000035,-0.00001038,-0.00005806,0.00002688,-0.00003750,-0.0000
 0556,-0.00041605,-0.00011503,0.00007979,0.00004007,-0.00002539,0.00001
 547,0.00000073,-0.00000424,0.00002636,0.00005424,0.00002859,-0.0000176
 7,0.04430164,-0.17111354,0.05857151,0.02112334,-0.04805632,0.00201536,
 -0.00759770,0.51812217,-0.00028595,-0.00006960,0.00019412,-0.00159926,
 -0.00020315,-0.00231179,0.00503008,-0.00265880,0.00080007,0.00018695,0
 .00025572,-0.00103374,-0.00057692,-0.00057691,-0.00031404,-0.00049259,
 0.00228578,-0.00521362,-0.00131520,-0.00066231,0.00364066,-0.00014533,
 -0.00010966,0.00049873,-0.02194499,0.03439347,-0.03926702,0.00027583,0
 .00018719,-0.00008388,0.00000935,-0.00001572,-0.00001285,-0.00001907,0
 .00001886,0.00010245,0.00050495,0.00051877,0.00017959,-0.00053616,0.00
 077030,-0.00047591,-0.00021776,0.00000048,0.00033374,0.00002459,0.0001
 1256,0.00010275,0.00062383,-0.00104783,0.00050387,0.00035614,-0.000027
 43,0.00031396,-0.00011531,0.00003001,0.00005352,0.00002119,0.00000657,
 -0.00001282,0.00000289,-0.00001121,-0.00000348,0.00002075,-0.00001060,
 -0.00000029,-0.00002716,-0.00000377,0.00002795,0.00001411,0.00007035,-
 0.00000767,-0.00001163,0.00000257,0.00000397,0.00001906,0.00001339,0.0
 0001218,0.00022941,0.00002851,-0.00005999,-0.00000158,0.00000195,0.000
 01879,-0.00006687,0.00003545,0.00001655,-0.00004964,-0.00002909,-0.000
 01285,-0.02814133,0.06335652,-0.11509381,0.00678561,-0.02515495,0.0134
 1909,0.00755929,0.04598391,0.60791713,-0.00006261,-0.00005938,0.000032
 62,-0.00002881,-0.00005610,0.00016784,-0.00006813,-0.00092536,0.000470
 10,0.00017541,0.00065127,-0.00040457,0.00023844,0.00020287,-0.00010413
 ,-0.00079872,-0.00119705,0.00046210,0.00007804,0.00007891,-0.00015554,
 -0.00006714,-0.00050958,0.00029077,-0.00071855,0.00055933,-0.00177101,
 0.00008896,0.00005662,-0.00005691,-0.00002375,0.00001452,-0.00000334,0
 .00000926,0.00000517,-0.00000654,0.00001524,0.00002461,-0.00001866,-0.
 00009201,0.00008970,-0.00006337,-0.00009903,-0.00003561,0.00013249,0.0
 0001292,0.00002553,0.00003337,-0.00001480,-0.00000966,-0.00001355,-0.0
 0029824,0.00013332,-0.00009296,-0.00007663,0.00000348,0.00003082,0.000
 00679,0.00000408,-0.00000301,0.00000620,-0.00000569,-0.00000552,0.0000
 1010,-0.00000620,0.00000141,0.00005172,-0.00008893,-0.00007291,0.00000
 264,-0.00000526,0.00001230,-0.00000105,0.00000316,0.00001509,-0.000003
 63,0.00000588,0.00000007,0.00000744,0.00010437,-0.00005510,0.00000500,
 -0.00002766,0.00003370,-0.00000318,-0.00001162,-0.00001618,-0.00011491
 ,-0.00004425,-0.00001752,0.01230653,0.00547671,-0.00011506,-0.00242053
 ,0.00320821,0.00125817,-0.19527889,-0.13195236,0.01967961,0.21039893,-
 0.00003061,-0.00003207,0.00006195,-0.00010944,0.00020085,-0.00013457,0
 .00084901,0.00007061,0.00046736,-0.00013050,-0.00047445,0.00024053,-0.
 00016983,-0.00046239,0.00014544,0.00164684,0.00013206,0.00003183,-0.00
 003639,0.00025807,-0.00027827,-0.00047823,0.00029645,-0.00045353,0.001
 08124,0.00074571,-0.00259263,0.00007124,0.00005107,-0.00005220,-0.0000
 0941,-0.00000118,-0.00000311,0.00000073,0.00000297,0.00000128,0.000032
 80,0.00003008,0.00001276,0.00006640,-0.00005068,0.00003776,0.00001366,
 0.00010698,-0.00008383,0.00001130,-0.00000847,-0.00004028,-0.00005637,
 0.00004935,-0.00002330,0.00021163,0.00006599,0.00010348,-0.00004692,0.
 00000178,0.00003328,0.00000406,0.00000415,-0.00000283,0.00000248,-0.00
 000506,-0.00000623,0.00000406,-0.00000455,-0.00000079,-0.00001666,0.00
 000441,0.00000268,-0.00000708,0.00000461,-0.00000378,0.00000510,-0.000
 00559,0.00000010,-0.00000053,0.00000277,-0.00000543,0.00038986,0.00016
 506,-0.00011785,-0.00009018,0.00001414,-0.00002605,-0.00004543,-0.0000
 1331,0.00003345,0.00002349,0.00002740,0.00004071,-0.02282693,-0.023562
 69,0.00507072,0.00227978,-0.00044262,0.00091806,-0.13524207,-0.1538073
 8,0.02204154,0.14474239,0.17034438,0.00001366,-0.00002660,0.00004501,0
 .00010157,-0.00017173,0.00014521,-0.00082171,-0.00094838,0.00029097,0.
 00006932,0.00051833,-0.00045228,-0.00003410,-0.00001329,0.00004418,-0.
 00012790,-0.00022344,0.00001562,-0.00000783,0.00003335,-0.00000992,0.0
 0025287,-0.00044770,0.00001908,-0.00199385,0.00079313,-0.00162321,0.00
 002785,0.00002541,-0.00003648,-0.00002461,-0.00000025,0.00000716,-0.00
 000567,0.00000645,-0.00001326,-0.00001355,-0.00001487,-0.00000322,-0.0
 0012148,0.00016311,-0.00009739,-0.00009154,-0.00003060,0.00013290,0.00
 002720,0.00000563,0.00001326,-0.00000830,-0.00001415,0.00001290,-0.000
 04260,0.00000337,-0.00005408,-0.00002672,0.00000464,0.00002090,0.00000
 242,0.00000108,-0.00000249,0.00000197,-0.00000092,-0.00000498,0.000002
 38,-0.00000277,0.00000074,0.00000804,-0.00001652,0.00000652,0.00000129
 ,-0.00000097,0.00000267,0.00000409,0.00000172,0.00000092,0.00000043,-0
 .00000066,-0.00000265,-0.00019491,-0.00008180,0.00009785,0.00004652,0.
 00001770,-0.00001191,0.00005517,-0.00004835,-0.00001805,-0.00003736,0.
 00002578,0.00005681,0.01529333,0.00918255,-0.00402002,-0.00030022,-0.0
 0032945,0.00044733,0.02028848,0.02330981,-0.04366120,-0.02407347,-0.02
 463278,0.04577890,0.00006636,-0.00000523,0.00002423,0.00012205,0.00009
 226,0.00018113,-0.00005375,0.00021513,-0.00033598,0.00000319,-0.000047
 54,0.00016040,0.00001611,-0.00001649,0.00000413,0.00044860,-0.00066221
 ,0.00063082,0.00003353,0.00012156,-0.00036442,-0.00002216,-0.00002097,
 -0.00016577,0.00147392,-0.00057018,-0.00032846,-0.00006645,-0.00002226
 ,0.00000156,0.00000028,0.00001467,-0.00000877,-0.00000488,-0.00000314,
 -0.00002413,-0.00004653,-0.00004487,-0.00000931,0.00002308,-0.00001773
 ,0.00000758,0.00003291,0.00002364,-0.00003511,0.00001062,-0.00001311,-
 0.00001583,-0.00007310,0.00009645,-0.00007371,-0.00001564,0.00000078,-
 0.00001893,0.00004977,-0.00001165,0.00000518,-0.00000596,0.00000054,0.
 00000099,-0.00000335,0.00000076,-0.00000111,-0.00001056,0.00000307,-0.
 00000590,0.00001048,0.00000903,0.00000292,-0.00000526,-0.00000456,-0.0
 0000141,0.00000035,-0.00000131,0.00000042,-0.00000117,-0.00000116,-0.0
 0000062,0.00002851,0.00001643,-0.00001138,-0.00001792,0.00000887,-0.00
 000545,0.00000523,-0.00001195,-0.00000315,0.00000304,0.00000810,0.0000
 1829,-0.00956142,0.00064702,0.00808283,-0.00004722,0.00141986,-0.00086
 856,-0.17900334,0.09114460,0.10765094,-0.01564983,0.01136941,0.0124810
 0,0.19133776,0.00014874,-0.00017571,0.00016339,-0.00010641,-0.00022604
 ,-0.00038465,-0.00003798,-0.00068877,0.00070700,-0.00014671,0.00010776
 ,-0.00031428,-0.00015392,-0.00021461,-0.00007199,0.00005389,0.00107523
 ,-0.00155870,-0.00055441,-0.00014075,0.00107294,-0.00012895,0.00002220
 ,-0.00002394,-0.00222158,0.00131814,-0.00215606,0.00002116,0.00016382,
 -0.00009163,-0.00008843,-0.00000196,-0.00001135,-0.00004495,0.00001356
 ,0.00000198,0.00005089,0.00007063,0.00004038,-0.00006311,0.00012394,-0
 .00005871,-0.00008485,0.00003013,0.00009542,0.00002703,0.00001481,0.00
 001850,0.00017548,-0.00028282,0.00014342,0.00011172,0.00002009,0.00007
 540,-0.00003068,-0.00000742,0.00006773,0.00000119,0.00000787,-0.000006
 44,-0.00000295,-0.00000580,-0.00000919,-0.00000807,-0.00000511,-0.0000
 0612,-0.00000263,-0.00000980,0.00000343,0.00000266,0.00001884,-0.00000
 076,-0.00000207,-0.00000054,0.00000286,0.00000457,0.00000462,0.0000026
 0,0.00011400,0.00001396,-0.00002645,-0.00001303,0.00001483,-0.00000858
 ,-0.00001456,-0.00000291,0.00000716,0.00000266,0.00000565,0.00002114,0
 .02083364,-0.01480956,-0.01693451,0.00175690,-0.00583343,0.00365873,0.
 08834652,-0.09351349,-0.06840108,-0.01510974,0.01034689,0.01193417,-0.
 09654230,0.10597927,-0.00008108,0.00005111,0.00000389,0.00008396,0.000
 12247,0.00027670,-0.00006734,-0.00032731,0.00063669,-0.00001353,0.0001
 6276,-0.00009757,0.00016914,-0.00006987,0.00002309,0.00063521,-0.00055
 291,0.00123287,0.00024645,0.00010915,-0.00074330,-0.00007616,-0.000106
 79,-0.00004834,0.00041220,0.00093752,-0.00238775,0.00006012,-0.0000570
 7,-0.00003015,0.00002938,0.00002132,0.00004147,0.00000324,0.00000545,-
 0.00003653,-0.00001483,-0.00002879,-0.00003470,-0.00000018,-0.00004789
 ,0.00001765,-0.00003917,0.00001863,0.00002435,-0.00000661,0.00000747,-
 0.00001555,-0.00014817,0.00025634,-0.00014126,-0.00010121,0.00008701,-
 0.00002053,-0.00003302,0.00000525,0.00001552,0.00000511,-0.00000166,-0
 .00000089,-0.00000092,-0.00000054,-0.00001135,0.00000638,0.00000373,0.
 00000739,0.00003633,-0.00003176,-0.00004135,-0.00000919,-0.00000911,0.
 00000622,-0.00000039,-0.00000025,0.00000695,-0.00000712,0.00000118,-0.
 00000169,0.00009708,0.00004150,-0.00004567,-0.00002261,0.00000340,0.00
 000223,-0.00001096,0.00000470,-0.00000389,-0.00001272,-0.00000917,0.00
 000049,-0.01378907,0.00302508,0.01166567,-0.00052716,0.00502816,-0.000
 78060,0.11170654,-0.07067711,-0.14203622,0.00164301,-0.00201732,-0.002
 76930,-0.12034067,0.07388808,0.14610059,-0.00000879,-0.00001830,0.0000
 4905,-0.00021910,0.00003159,-0.00026753,0.00100142,-0.00001234,0.00012
 832,0.00007138,-0.00009876,0.00000065,-0.00000370,-0.00007623,-0.00010
 884,0.00011636,0.00046237,-0.00026164,-0.00018443,-0.00010469,0.000364
 16,-0.00012903,0.00005364,0.00008111,0.00051384,0.00176235,-0.00189519
 ,0.00000719,0.00001665,-0.00002158,-0.00000621,0.00001820,0.00000087,-
 0.00001016,0.00000486,-0.00000628,0.00006220,0.00006425,0.00002433,-0.
 00002429,0.00004026,-0.00001657,0.00000248,0.00000942,-0.00000026,-0.0
 0002336,0.00001615,0.00001255,0.00003988,0.00000048,0.00000504,0.00000
 867,-0.00000855,0.00006842,0.00000842,-0.00000267,0.00001630,0.0000015
 1,0.00000038,-0.00000055,-0.00000316,-0.00000078,-0.00000453,-0.000002
 38,0.00000327,-0.00000070,0.00002113,0.00000131,-0.00001164,-0.0000011
 2,0.00000690,-0.00000210,-0.00000897,0.00000064,0.00000354,0.00000113,
 0.00000103,0.00000357,0.00011394,0.00003902,-0.00006430,-0.00002742,-0
 .00000201,0.00001391,-0.00003471,0.00002441,0.00000198,-0.00000256,-0.
 00001924,-0.00001566,-0.00663055,-0.00724557,-0.00758307,0.00020087,-0
 .00002428,0.00070016,-0.08412943,-0.02043082,-0.09344786,-0.00759319,-
 0.00350889,-0.02075180,0.01092273,0.00370629,0.02016798,0.08594945,0.0
 0009689,-0.00000852,-0.00004014,0.00044079,-0.00001362,0.00054340,-0.0
 0110684,0.00013105,0.00032916,-0.00018591,-0.00001294,0.00020217,0.000
 07581,0.00016556,-0.00000680,-0.00022643,-0.00067666,0.00056260,0.0000
 9166,0.00005293,-0.00054533,0.00004185,0.00009337,-0.00011136,0.003458
 56,-0.00501669,0.00522475,-0.00007858,-0.00003193,0.00001081,-0.000014
 05,0.00001023,0.00000108,-0.00000256,-0.00000523,-0.00002392,-0.000134
 41,-0.00012637,-0.00003827,0.00013239,-0.00020957,0.00013948,0.0000484
 7,0.00000039,-0.00006695,0.00001206,-0.00001954,-0.00001907,0.00000789
 ,-0.00000276,-0.00002585,-0.00008681,0.00002440,-0.00008528,0.00003251
 ,-0.00001223,-0.00000274,-0.00000543,-0.00000096,0.00000464,-0.0000035
 3,0.00000100,-0.00000118,-0.00000997,0.00000573,0.00000049,0.00000754,
 0.00000388,-0.00000368,-0.00000406,-0.00001311,0.00000567,0.00000549,-
 0.00000137,-0.00000075,-0.00000337,-0.00000169,-0.00000372,-0.00001555
 ,-0.00000646,0.00000229,0.00000094,-0.00000241,-0.00000292,0.00000694,
 0.00000523,-0.00000393,0.00002351,-0.00000123,-0.00001397,0.01064716,0
 .00880418,0.02621867,-0.00090394,0.00097739,0.00005363,-0.02509744,-0.
 06667364,-0.07113178,-0.00534571,-0.00405537,-0.01902100,-0.00719551,-
 0.00343351,-0.00984275,0.02528966,0.07005045,-0.00004272,0.00003051,0.
 00000081,-0.00019835,0.00000464,-0.00033672,0.00054089,-0.00035108,0.0
 0029583,0.00001672,0.00000082,-0.00016263,-0.00016449,-0.00022548,0.00
 002715,0.00040737,0.00119656,-0.00042734,-0.00015326,-0.00011425,0.000
 43275,0.00005742,0.00000388,0.00007385,-0.00266872,0.00248682,-0.00098
 976,0.00001828,0.00000129,0.00002257,0.00001210,-0.00002103,-0.0000073
 0,0.00000474,-0.00000333,0.00002707,0.00008269,0.00004656,0.00003951,-
 0.00005563,0.00009149,-0.00006155,-0.00003256,-0.00000626,0.00004911,0
 .00000014,0.00001653,0.00001052,-0.00000329,-0.00000505,0.00002497,0.0
 0018895,-0.00010628,0.00008031,-0.00000098,0.00000912,-0.00001939,0.00
 000186,-0.00000178,-0.00000037,0.00000155,0.00000101,0.00000569,0.0000
 0554,-0.00000200,-0.00000020,-0.00002429,0.00005847,0.00005407,-0.0000
 0252,0.00000705,-0.00000653,0.00000240,-0.00000029,-0.00000771,0.00000
 391,-0.00000474,-0.00000207,-0.00005228,-0.00001403,0.00001690,0.00001
 189,-0.00000027,0.00000237,0.00000060,-0.00000417,0.00000243,-0.000006
 40,0.00000377,0.00000309,-0.00353915,-0.00423138,-0.01443492,0.0015398
 4,-0.00255934,0.00109954,-0.09492255,-0.06339228,-0.27853795,0.0027858
 8,0.00123185,0.00564151,-0.00663375,-0.00183987,-0.01081513,0.10281819
 ,0.06769252,0.29789952\\0.00000173,0.00003250,-0.00002113,0.00002255,0
 .00003495,0.00002767,0.00003782,-0.00002246,-0.00002220,-0.00001546,-0
 .00005549,0.00002336,-0.00005139,0.00001908,0.00000368,0.00011966,0.00
 001499,-0.00003397,-0.00007525,-0.00004061,0.00001983,-0.00006038,0.00
 004708,-0.00001223,0.00003705,0.00001593,-0.00000815,0.00003040,-0.000
 02200,-0.00002330,0.00000400,-0.00000835,0.00000698,0.00000417,-0.0000
 1356,-0.00000292,0.00000192,-0.00000360,-0.00000944,-0.00000336,0.0000
 0015,-0.00000509,-0.00001250,-0.00000306,0.00000281,-0.00001267,0.0000
 0139,-0.00000290,-0.00001456,0.00001501,0.00000434,0.00000854,0.000010
 92,0.00001594,-0.00006182,0.00000528,0.00003314,0.00000508,0.00000155,
 -0.00000871,0.00000953,-0.00000676,-0.00001391,0.00001475,-0.00000243,
 -0.00000287,0.00000286,-0.00004272,-0.00004866,0.00000117,0.00001163,0
 .00000218,-0.00000792,0.00001060,0.00000815,-0.00001148,0.00000432,-0.
 00000272,0.00005724,-0.00001339,-0.00000103,-0.00001025,-0.00000870,0.
 00000146,-0.00001146,0.00000011,0.00000634,-0.00000951,-0.00000518,0.0
 0000946,-0.00003732,0.00001351,0.00002771,0.00000109,-0.00000087,-0.00
 000804,0.00003010,-0.00001480,0.00000124,-0.00000317,0.00001403,0.0000
 1441,0.00000127,0.00000229,0.00000822,0.00000755,0.00000865,0.00001033
 \\\@


 ONE OF THE BENEFITS OF A COLLEGE EDUCATION
 IS TO SHOW THE BOY ITS LITTLE AVAIL 
                                    EMERSON IN 'CULTURE'
 Job cpu time:       0 days  5 hours 27 minutes 42.3 seconds.
 File lengths (MBytes):  RWF=    766 Int=      0 D2E=      0 Chk=     19 Scr=      1
 Normal termination of Gaussian 09 at Tue Oct 24 14:09:46 2017.
