 Entering Gaussian System, Link 0=g09
 Initial command:
 /share/apps//g09/l1.exe "/scratch/Gau-26016.inp" -scrdir="/scratch/"
 Entering Link 1 = /share/apps//g09/l1.exe PID=     26017.
  
 Copyright (c) 1988,1990,1992,1993,1995,1998,2003,2009,2013,
            Gaussian, Inc.  All Rights Reserved.
  
 This is part of the Gaussian(R) 09 program.  It is based on
 the Gaussian(R) 03 system (copyright 2003, Gaussian, Inc.),
 the Gaussian(R) 98 system (copyright 1998, Gaussian, Inc.),
 the Gaussian(R) 94 system (copyright 1995, Gaussian, Inc.),
 the Gaussian 92(TM) system (copyright 1992, Gaussian, Inc.),
 the Gaussian 90(TM) system (copyright 1990, Gaussian, Inc.),
 the Gaussian 88(TM) system (copyright 1988, Gaussian, Inc.),
 the Gaussian 86(TM) system (copyright 1986, Carnegie Mellon
 University), and the Gaussian 82(TM) system (copyright 1983,
 Carnegie Mellon University). Gaussian is a federally registered
 trademark of Gaussian, Inc.
  
 This software contains proprietary and confidential information,
 including trade secrets, belonging to Gaussian, Inc.
  
 This software is provided under written license and may be
 used, copied, transmitted, or stored only in accord with that
 written license.
  
 The following legend is applicable only to US Government
 contracts under FAR:
  
                    RESTRICTED RIGHTS LEGEND
  
 Use, reproduction and disclosure by the US Government is
 subject to restrictions as set forth in subparagraphs (a)
 and (c) of the Commercial Computer Software - Restricted
 Rights clause in FAR 52.227-19.
  
 Gaussian, Inc.
 340 Quinnipiac St., Bldg. 40, Wallingford CT 06492
  
  
 ---------------------------------------------------------------
 Warning -- This program may not be used in any manner that
 competes with the business of Gaussian, Inc. or will provide
 assistance to any competitor of Gaussian, Inc.  The licensee
 of this program is prohibited from giving any competitor of
 Gaussian, Inc. access to this program.  By using this program,
 the user acknowledges that Gaussian, Inc. is engaged in the
 business of creating and licensing software in the field of
 computational chemistry and represents and warrants to the
 licensee that it is not a competitor of Gaussian, Inc. and that
 it will not use this program in any manner prohibited above.
 ---------------------------------------------------------------
  

 Cite this work as:
 Gaussian 09, Revision D.01,
 M. J. Frisch, G. W. Trucks, H. B. Schlegel, G. E. Scuseria, 
 M. A. Robb, J. R. Cheeseman, G. Scalmani, V. Barone, B. Mennucci, 
 G. A. Petersson, H. Nakatsuji, M. Caricato, X. Li, H. P. Hratchian, 
 A. F. Izmaylov, J. Bloino, G. Zheng, J. L. Sonnenberg, M. Hada, 
 M. Ehara, K. Toyota, R. Fukuda, J. Hasegawa, M. Ishida, T. Nakajima, 
 Y. Honda, O. Kitao, H. Nakai, T. Vreven, J. A. Montgomery, Jr., 
 J. E. Peralta, F. Ogliaro, M. Bearpark, J. J. Heyd, E. Brothers, 
 K. N. Kudin, V. N. Staroverov, T. Keith, R. Kobayashi, J. Normand, 
 K. Raghavachari, A. Rendell, J. C. Burant, S. S. Iyengar, J. Tomasi, 
 M. Cossi, N. Rega, J. M. Millam, M. Klene, J. E. Knox, J. B. Cross, 
 V. Bakken, C. Adamo, J. Jaramillo, R. Gomperts, R. E. Stratmann, 
 O. Yazyev, A. J. Austin, R. Cammi, C. Pomelli, J. W. Ochterski, 
 R. L. Martin, K. Morokuma, V. G. Zakrzewski, G. A. Voth, 
 P. Salvador, J. J. Dannenberg, S. Dapprich, A. D. Daniels, 
 O. Farkas, J. B. Foresman, J. V. Ortiz, J. Cioslowski, 
 and D. J. Fox, Gaussian, Inc., Wallingford CT, 2013.
 
 ******************************************
 Gaussian 09:  EM64L-G09RevD.01 24-Apr-2013
                24-Oct-2017 
 ******************************************
 %nproc=10
 Will use up to   10 processors via shared memory.
 %mem=60GB
 %chk=Ac-4_cGalMe.chk
 -------------------------------------------------------------------
 #P PBE1PBE/6-311+G(d,p) opt optcyc=999 freq EmpiricalDispersion=GD3
 -------------------------------------------------------------------
 1/6=999,14=-1,18=20,19=15,26=3,38=1/1,3;
 2/9=110,12=2,17=6,18=5,40=1/2;
 3/5=4,6=6,7=111,11=2,16=1,25=1,30=1,71=1,74=-13,124=31/1,2,3;
 4//1;
 5/5=2,38=5/2;
 6/7=2,8=2,9=2,10=2,28=1/1;
 7//1,2,3,16;
 1/6=999,14=-1,18=20,19=15,26=3/3(2);
 2/9=110/2;
 99//99;
 2/9=110/2;
 3/5=4,6=6,7=111,11=2,16=1,25=1,30=1,71=1,74=-13,124=31/1,2,3;
 4/5=5,16=3,69=1/1;
 5/5=2,38=5/2;
 7//1,2,3,16;
 1/6=999,14=-1,18=20,19=15,26=3/3(-5);
 2/9=110/2;
 6/7=2,8=2,9=2,10=2,19=2,28=1/1;
 99/9=1/99;
 Leave Link    1 at Tue Oct 24 12:49:09 2017, MaxMem=  8053063680 cpu:         0.7
 (Enter /share/apps//g09/l101.exe)
 -------
 disacch
 -------
 Symbolic Z-matrix:
 Charge =  1 Multiplicity = 1
 C                    -1.05269  -1.66194   3.71094 
 C                     0.13871  -1.27972   2.85137 
 C                     0.22744   0.13633   2.28779 
 C                     1.44016   0.24205   1.33865 
 C                     1.20582  -0.70852   0.16365 
 C                     0.52669  -1.97974   0.55371 
 O                     0.15726  -2.31093   1.71793 
 O                     1.63745   1.51511   0.78426 
 O                    -0.93276   0.51117   1.54103 
 O                    -2.23979  -1.58116   2.95694 
 H                    -1.05474  -0.96218   4.57124 
 H                    -0.89582  -2.68384   4.10863 
 H                     1.0601   -1.51141   3.40854 
 H                     0.33971   0.80974   3.1546 
 H                     2.34233  -0.09901   1.88799 
 H                     0.62632  -0.17735  -0.61259 
 H                     0.45886  -2.79405  -0.17877 
 O                     2.43918  -1.2411   -0.31819 
 C                    -3.40265  -1.801     3.76842 
 H                    -4.26484  -1.75458   3.0947 
 H                    -3.37127  -2.79285   4.24958 
 H                    -3.49446  -1.01893   4.54032 
 C                     2.59432  -1.20744  -1.75514 
 H                     1.8503   -1.84237  -2.2608 
 H                     2.50564  -0.16982  -2.11 
 H                     3.59724  -1.59789  -1.95362 
 C                     2.22647   2.46703   1.68639 
 H                     1.53901   2.73711   2.5037 
 H                     3.17028   2.07968   2.10419 
 H                     2.43347   3.3599    1.08794 
 C                    -1.88627   1.24013   2.25488 
 O                    -1.71613   1.5611    3.40966 
 C                    -3.07167   1.52961   1.39229 
 H                    -3.57279   0.58303   1.14606 
 H                    -2.75822   1.99379   0.4485 
 H                    -3.76196   2.18685   1.92773 
 
 NAtoms=     36 NQM=       36 NQMF=       0 NMMI=      0 NMMIF=      0
                NMic=       0 NMicF=      0.
                    Isotopes and Nuclear Properties:
 (Nuclear quadrupole moments (NQMom) in fm**2, nuclear magnetic moments (NMagM)
  in nuclear magnetons)

  Atom         1           2           3           4           5           6           7           8           9          10
 IAtWgt=          12          12          12          12          12          12          16          16          16          16
 AtmWgt=  12.0000000  12.0000000  12.0000000  12.0000000  12.0000000  12.0000000  15.9949146  15.9949146  15.9949146  15.9949146
 NucSpn=           0           0           0           0           0           0           0           0           0           0
 AtZEff=   0.0000000   0.0000000   0.0000000   0.0000000   0.0000000   0.0000000   0.0000000   0.0000000   0.0000000   0.0000000
 NQMom=    0.0000000   0.0000000   0.0000000   0.0000000   0.0000000   0.0000000   0.0000000   0.0000000   0.0000000   0.0000000
 NMagM=    0.0000000   0.0000000   0.0000000   0.0000000   0.0000000   0.0000000   0.0000000   0.0000000   0.0000000   0.0000000
 AtZNuc=   6.0000000   6.0000000   6.0000000   6.0000000   6.0000000   6.0000000   8.0000000   8.0000000   8.0000000   8.0000000

  Atom        11          12          13          14          15          16          17          18          19          20
 IAtWgt=           1           1           1           1           1           1           1          16          12           1
 AtmWgt=   1.0078250   1.0078250   1.0078250   1.0078250   1.0078250   1.0078250   1.0078250  15.9949146  12.0000000   1.0078250
 NucSpn=           1           1           1           1           1           1           1           0           0           1
 AtZEff=   0.0000000   0.0000000   0.0000000   0.0000000   0.0000000   0.0000000   0.0000000   0.0000000   0.0000000   0.0000000
 NQMom=    0.0000000   0.0000000   0.0000000   0.0000000   0.0000000   0.0000000   0.0000000   0.0000000   0.0000000   0.0000000
 NMagM=    2.7928460   2.7928460   2.7928460   2.7928460   2.7928460   2.7928460   2.7928460   0.0000000   0.0000000   2.7928460
 AtZNuc=   1.0000000   1.0000000   1.0000000   1.0000000   1.0000000   1.0000000   1.0000000   8.0000000   6.0000000   1.0000000

  Atom        21          22          23          24          25          26          27          28          29          30
 IAtWgt=           1           1          12           1           1           1          12           1           1           1
 AtmWgt=   1.0078250   1.0078250  12.0000000   1.0078250   1.0078250   1.0078250  12.0000000   1.0078250   1.0078250   1.0078250
 NucSpn=           1           1           0           1           1           1           0           1           1           1
 AtZEff=   0.0000000   0.0000000   0.0000000   0.0000000   0.0000000   0.0000000   0.0000000   0.0000000   0.0000000   0.0000000
 NQMom=    0.0000000   0.0000000   0.0000000   0.0000000   0.0000000   0.0000000   0.0000000   0.0000000   0.0000000   0.0000000
 NMagM=    2.7928460   2.7928460   0.0000000   2.7928460   2.7928460   2.7928460   0.0000000   2.7928460   2.7928460   2.7928460
 AtZNuc=   1.0000000   1.0000000   6.0000000   1.0000000   1.0000000   1.0000000   6.0000000   1.0000000   1.0000000   1.0000000

  Atom        31          32          33          34          35          36
 IAtWgt=          12          16          12           1           1           1
 AtmWgt=  12.0000000  15.9949146  12.0000000   1.0078250   1.0078250   1.0078250
 NucSpn=           0           0           0           1           1           1
 AtZEff=   0.0000000   0.0000000   0.0000000   0.0000000   0.0000000   0.0000000
 NQMom=    0.0000000   0.0000000   0.0000000   0.0000000   0.0000000   0.0000000
 NMagM=    0.0000000   0.0000000   0.0000000   2.7928460   2.7928460   2.7928460
 AtZNuc=   6.0000000   8.0000000   6.0000000   1.0000000   1.0000000   1.0000000
 Leave Link  101 at Tue Oct 24 12:49:09 2017, MaxMem=  8053063680 cpu:         2.8
 (Enter /share/apps//g09/l103.exe)

 GradGradGradGradGradGradGradGradGradGradGradGradGradGradGradGradGradGrad
 Berny optimization.
 Initialization pass.
                           ----------------------------
                           !    Initial Parameters    !
                           ! (Angstroms and Degrees)  !
 --------------------------                            --------------------------
 ! Name  Definition              Value          Derivative Info.                !
 --------------------------------------------------------------------------------
 ! R1    R(1,2)                  1.518          estimate D2E/DX2                !
 ! R2    R(1,10)                 1.4086         estimate D2E/DX2                !
 ! R3    R(1,11)                 1.109          estimate D2E/DX2                !
 ! R4    R(1,12)                 1.1077         estimate D2E/DX2                !
 ! R5    R(2,3)                  1.5267         estimate D2E/DX2                !
 ! R6    R(2,7)                  1.5325         estimate D2E/DX2                !
 ! R7    R(2,13)                 1.1014         estimate D2E/DX2                !
 ! R8    R(3,4)                  1.5436         estimate D2E/DX2                !
 ! R9    R(3,9)                  1.4298         estimate D2E/DX2                !
 ! R10   R(3,14)                 1.1034         estimate D2E/DX2                !
 ! R11   R(4,5)                  1.5294         estimate D2E/DX2                !
 ! R12   R(4,8)                  1.4025         estimate D2E/DX2                !
 ! R13   R(4,15)                 1.11           estimate D2E/DX2                !
 ! R14   R(5,6)                  1.4931         estimate D2E/DX2                !
 ! R15   R(5,16)                 1.1048         estimate D2E/DX2                !
 ! R16   R(5,18)                 1.4272         estimate D2E/DX2                !
 ! R17   R(6,7)                  1.2655         estimate D2E/DX2                !
 ! R18   R(6,17)                 1.0974         estimate D2E/DX2                !
 ! R19   R(8,27)                 1.4377         estimate D2E/DX2                !
 ! R20   R(9,31)                 1.3965         estimate D2E/DX2                !
 ! R21   R(10,19)                1.4349         estimate D2E/DX2                !
 ! R22   R(18,23)                1.4457         estimate D2E/DX2                !
 ! R23   R(19,20)                1.0952         estimate D2E/DX2                !
 ! R24   R(19,21)                1.1028         estimate D2E/DX2                !
 ! R25   R(19,22)                1.1027         estimate D2E/DX2                !
 ! R26   R(23,24)                1.1011         estimate D2E/DX2                !
 ! R27   R(23,25)                1.1002         estimate D2E/DX2                !
 ! R28   R(23,26)                1.0944         estimate D2E/DX2                !
 ! R29   R(27,28)                1.1016         estimate D2E/DX2                !
 ! R30   R(27,29)                1.1024         estimate D2E/DX2                !
 ! R31   R(27,30)                1.0946         estimate D2E/DX2                !
 ! R32   R(31,32)                1.2106         estimate D2E/DX2                !
 ! R33   R(31,33)                1.4943         estimate D2E/DX2                !
 ! R34   R(33,34)                1.099          estimate D2E/DX2                !
 ! R35   R(33,35)                1.0975         estimate D2E/DX2                !
 ! R36   R(33,36)                1.0932         estimate D2E/DX2                !
 ! A1    A(2,1,10)             110.1131         estimate D2E/DX2                !
 ! A2    A(2,1,11)             106.3705         estimate D2E/DX2                !
 ! A3    A(2,1,12)             108.9309         estimate D2E/DX2                !
 ! A4    A(10,1,11)            112.1792         estimate D2E/DX2                !
 ! A5    A(10,1,12)            111.3718         estimate D2E/DX2                !
 ! A6    A(11,1,12)            107.69           estimate D2E/DX2                !
 ! A7    A(1,2,3)              119.222          estimate D2E/DX2                !
 ! A8    A(1,2,7)              105.0033         estimate D2E/DX2                !
 ! A9    A(1,2,13)             108.4908         estimate D2E/DX2                !
 ! A10   A(3,2,7)              110.5128         estimate D2E/DX2                !
 ! A11   A(3,2,13)             109.4659         estimate D2E/DX2                !
 ! A12   A(7,2,13)             102.8545         estimate D2E/DX2                !
 ! A13   A(2,3,4)              109.6442         estimate D2E/DX2                !
 ! A14   A(2,3,9)              112.8812         estimate D2E/DX2                !
 ! A15   A(2,3,14)             106.3797         estimate D2E/DX2                !
 ! A16   A(4,3,9)              107.3621         estimate D2E/DX2                !
 ! A17   A(4,3,14)             111.1807         estimate D2E/DX2                !
 ! A18   A(9,3,14)             109.4434         estimate D2E/DX2                !
 ! A19   A(3,4,5)              108.026          estimate D2E/DX2                !
 ! A20   A(3,4,8)              114.5662         estimate D2E/DX2                !
 ! A21   A(3,4,15)             108.2523         estimate D2E/DX2                !
 ! A22   A(5,4,8)              106.3816         estimate D2E/DX2                !
 ! A23   A(5,4,15)             108.2878         estimate D2E/DX2                !
 ! A24   A(8,4,15)             111.1136         estimate D2E/DX2                !
 ! A25   A(4,5,6)              113.4626         estimate D2E/DX2                !
 ! A26   A(4,5,16)             108.7445         estimate D2E/DX2                !
 ! A27   A(4,5,18)             111.0319         estimate D2E/DX2                !
 ! A28   A(6,5,16)             110.7516         estimate D2E/DX2                !
 ! A29   A(6,5,18)              99.4132         estimate D2E/DX2                !
 ! A30   A(16,5,18)            113.2968         estimate D2E/DX2                !
 ! A31   A(5,6,7)              126.5777         estimate D2E/DX2                !
 ! A32   A(5,6,17)             119.0465         estimate D2E/DX2                !
 ! A33   A(7,6,17)             113.6914         estimate D2E/DX2                !
 ! A34   A(2,7,6)              120.5203         estimate D2E/DX2                !
 ! A35   A(4,8,27)             114.2433         estimate D2E/DX2                !
 ! A36   A(3,9,31)             115.083          estimate D2E/DX2                !
 ! A37   A(1,10,19)            111.8051         estimate D2E/DX2                !
 ! A38   A(5,18,23)            114.81           estimate D2E/DX2                !
 ! A39   A(10,19,20)           106.4754         estimate D2E/DX2                !
 ! A40   A(10,19,21)           111.1895         estimate D2E/DX2                !
 ! A41   A(10,19,22)           110.7742         estimate D2E/DX2                !
 ! A42   A(20,19,21)           109.2027         estimate D2E/DX2                !
 ! A43   A(20,19,22)           109.5739         estimate D2E/DX2                !
 ! A44   A(21,19,22)           109.5617         estimate D2E/DX2                !
 ! A45   A(18,23,24)           111.7478         estimate D2E/DX2                !
 ! A46   A(18,23,25)           109.5056         estimate D2E/DX2                !
 ! A47   A(18,23,26)           105.6821         estimate D2E/DX2                !
 ! A48   A(24,23,25)           109.9531         estimate D2E/DX2                !
 ! A49   A(24,23,26)           109.2821         estimate D2E/DX2                !
 ! A50   A(25,23,26)           110.6005         estimate D2E/DX2                !
 ! A51   A(8,27,28)            111.8517         estimate D2E/DX2                !
 ! A52   A(8,27,29)            110.8494         estimate D2E/DX2                !
 ! A53   A(8,27,30)            105.9322         estimate D2E/DX2                !
 ! A54   A(28,27,29)           109.8297         estimate D2E/DX2                !
 ! A55   A(28,27,30)           108.884          estimate D2E/DX2                !
 ! A56   A(29,27,30)           109.3838         estimate D2E/DX2                !
 ! A57   A(9,31,32)            122.0094         estimate D2E/DX2                !
 ! A58   A(9,31,33)            110.3458         estimate D2E/DX2                !
 ! A59   A(32,31,33)           127.6447         estimate D2E/DX2                !
 ! A60   A(31,33,34)           108.9168         estimate D2E/DX2                !
 ! A61   A(31,33,35)           110.596          estimate D2E/DX2                !
 ! A62   A(31,33,36)           109.5497         estimate D2E/DX2                !
 ! A63   A(34,33,35)           107.5691         estimate D2E/DX2                !
 ! A64   A(34,33,36)           109.8547         estimate D2E/DX2                !
 ! A65   A(35,33,36)           110.3195         estimate D2E/DX2                !
 ! D1    D(10,1,2,3)            63.1851         estimate D2E/DX2                !
 ! D2    D(10,1,2,7)           -61.2594         estimate D2E/DX2                !
 ! D3    D(10,1,2,13)         -170.6796         estimate D2E/DX2                !
 ! D4    D(11,1,2,3)           -58.5899         estimate D2E/DX2                !
 ! D5    D(11,1,2,7)           176.9656         estimate D2E/DX2                !
 ! D6    D(11,1,2,13)           67.5453         estimate D2E/DX2                !
 ! D7    D(12,1,2,3)          -174.4114         estimate D2E/DX2                !
 ! D8    D(12,1,2,7)            61.1441         estimate D2E/DX2                !
 ! D9    D(12,1,2,13)          -48.2761         estimate D2E/DX2                !
 ! D10   D(2,1,10,19)         -174.0163         estimate D2E/DX2                !
 ! D11   D(11,1,10,19)         -55.7593         estimate D2E/DX2                !
 ! D12   D(12,1,10,19)          65.0319         estimate D2E/DX2                !
 ! D13   D(1,2,3,4)           -174.3147         estimate D2E/DX2                !
 ! D14   D(1,2,3,9)            -54.6741         estimate D2E/DX2                !
 ! D15   D(1,2,3,14)            65.3681         estimate D2E/DX2                !
 ! D16   D(7,2,3,4)            -52.5795         estimate D2E/DX2                !
 ! D17   D(7,2,3,9)             67.0611         estimate D2E/DX2                !
 ! D18   D(7,2,3,14)          -172.8967         estimate D2E/DX2                !
 ! D19   D(13,2,3,4)            60.0132         estimate D2E/DX2                !
 ! D20   D(13,2,3,9)           179.6538         estimate D2E/DX2                !
 ! D21   D(13,2,3,14)          -60.304          estimate D2E/DX2                !
 ! D22   D(1,2,7,6)            145.3427         estimate D2E/DX2                !
 ! D23   D(3,2,7,6)             15.5573         estimate D2E/DX2                !
 ! D24   D(13,2,7,6)          -101.2075         estimate D2E/DX2                !
 ! D25   D(2,3,4,5)             63.0549         estimate D2E/DX2                !
 ! D26   D(2,3,4,8)           -178.5943         estimate D2E/DX2                !
 ! D27   D(2,3,4,15)           -53.9967         estimate D2E/DX2                !
 ! D28   D(9,3,4,5)            -59.9125         estimate D2E/DX2                !
 ! D29   D(9,3,4,8)             58.4383         estimate D2E/DX2                !
 ! D30   D(9,3,4,15)          -176.9641         estimate D2E/DX2                !
 ! D31   D(14,3,4,5)          -179.5943         estimate D2E/DX2                !
 ! D32   D(14,3,4,8)           -61.2435         estimate D2E/DX2                !
 ! D33   D(14,3,4,15)           63.3541         estimate D2E/DX2                !
 ! D34   D(2,3,9,31)            96.2578         estimate D2E/DX2                !
 ! D35   D(4,3,9,31)          -142.7942         estimate D2E/DX2                !
 ! D36   D(14,3,9,31)          -22.009          estimate D2E/DX2                !
 ! D37   D(3,4,5,6)            -36.688          estimate D2E/DX2                !
 ! D38   D(3,4,5,16)            87.0348         estimate D2E/DX2                !
 ! D39   D(3,4,5,18)          -147.6597         estimate D2E/DX2                !
 ! D40   D(8,4,5,6)           -160.1489         estimate D2E/DX2                !
 ! D41   D(8,4,5,16)           -36.426          estimate D2E/DX2                !
 ! D42   D(8,4,5,18)            88.8794         estimate D2E/DX2                !
 ! D43   D(15,4,5,6)            80.3406         estimate D2E/DX2                !
 ! D44   D(15,4,5,16)         -155.9366         estimate D2E/DX2                !
 ! D45   D(15,4,5,18)          -30.6311         estimate D2E/DX2                !
 ! D46   D(3,4,8,27)            76.8034         estimate D2E/DX2                !
 ! D47   D(5,4,8,27)          -163.9201         estimate D2E/DX2                !
 ! D48   D(15,4,8,27)          -46.267          estimate D2E/DX2                !
 ! D49   D(4,5,6,7)             -0.2832         estimate D2E/DX2                !
 ! D50   D(4,5,6,17)          -170.1695         estimate D2E/DX2                !
 ! D51   D(16,5,6,7)          -122.9037         estimate D2E/DX2                !
 ! D52   D(16,5,6,17)           67.21           estimate D2E/DX2                !
 ! D53   D(18,5,6,7)           117.6558         estimate D2E/DX2                !
 ! D54   D(18,5,6,17)          -52.2305         estimate D2E/DX2                !
 ! D55   D(4,5,18,23)         -133.399          estimate D2E/DX2                !
 ! D56   D(6,5,18,23)          106.8563         estimate D2E/DX2                !
 ! D57   D(16,5,18,23)         -10.6872         estimate D2E/DX2                !
 ! D58   D(5,6,7,2)             11.9399         estimate D2E/DX2                !
 ! D59   D(17,6,7,2)          -177.711          estimate D2E/DX2                !
 ! D60   D(4,8,27,28)          -68.4139         estimate D2E/DX2                !
 ! D61   D(4,8,27,29)           54.5304         estimate D2E/DX2                !
 ! D62   D(4,8,27,30)          173.0889         estimate D2E/DX2                !
 ! D63   D(3,9,31,32)            2.1181         estimate D2E/DX2                !
 ! D64   D(3,9,31,33)         -177.8427         estimate D2E/DX2                !
 ! D65   D(1,10,19,20)        -178.0434         estimate D2E/DX2                !
 ! D66   D(1,10,19,21)         -59.1936         estimate D2E/DX2                !
 ! D67   D(1,10,19,22)          62.8883         estimate D2E/DX2                !
 ! D68   D(5,18,23,24)         -64.0306         estimate D2E/DX2                !
 ! D69   D(5,18,23,25)          58.0477         estimate D2E/DX2                !
 ! D70   D(5,18,23,26)         177.2013         estimate D2E/DX2                !
 ! D71   D(9,31,33,34)          65.6637         estimate D2E/DX2                !
 ! D72   D(9,31,33,35)         -52.3487         estimate D2E/DX2                !
 ! D73   D(9,31,33,36)        -174.1587         estimate D2E/DX2                !
 ! D74   D(32,31,33,34)       -114.2944         estimate D2E/DX2                !
 ! D75   D(32,31,33,35)        127.6932         estimate D2E/DX2                !
 ! D76   D(32,31,33,36)          5.8832         estimate D2E/DX2                !
 --------------------------------------------------------------------------------
 Trust Radius=3.00D-01 FncErr=1.00D-07 GrdErr=1.00D-06
 Number of steps in this run=    216 maximum allowed number of steps=    216.
 GradGradGradGradGradGradGradGradGradGradGradGradGradGradGradGradGradGrad

 Leave Link  103 at Tue Oct 24 12:49:10 2017, MaxMem=  8053063680 cpu:         0.1
 (Enter /share/apps//g09/l202.exe)
                          Input orientation:                          
 ---------------------------------------------------------------------
 Center     Atomic      Atomic             Coordinates (Angstroms)
 Number     Number       Type             X           Y           Z
 ---------------------------------------------------------------------
      1          6           0       -1.052690   -1.661940    3.710940
      2          6           0        0.138710   -1.279720    2.851370
      3          6           0        0.227440    0.136330    2.287790
      4          6           0        1.440160    0.242050    1.338650
      5          6           0        1.205820   -0.708520    0.163650
      6          6           0        0.526690   -1.979740    0.553710
      7          8           0        0.157260   -2.310930    1.717930
      8          8           0        1.637450    1.515110    0.784260
      9          8           0       -0.932760    0.511170    1.541030
     10          8           0       -2.239790   -1.581160    2.956940
     11          1           0       -1.054740   -0.962180    4.571240
     12          1           0       -0.895820   -2.683840    4.108630
     13          1           0        1.060100   -1.511410    3.408540
     14          1           0        0.339710    0.809740    3.154600
     15          1           0        2.342330   -0.099010    1.887990
     16          1           0        0.626320   -0.177350   -0.612590
     17          1           0        0.458860   -2.794050   -0.178770
     18          8           0        2.439180   -1.241100   -0.318190
     19          6           0       -3.402650   -1.801000    3.768420
     20          1           0       -4.264840   -1.754580    3.094700
     21          1           0       -3.371270   -2.792850    4.249580
     22          1           0       -3.494460   -1.018930    4.540320
     23          6           0        2.594320   -1.207440   -1.755140
     24          1           0        1.850300   -1.842370   -2.260800
     25          1           0        2.505640   -0.169820   -2.110000
     26          1           0        3.597240   -1.597890   -1.953620
     27          6           0        2.226470    2.467030    1.686390
     28          1           0        1.539010    2.737110    2.503700
     29          1           0        3.170280    2.079680    2.104190
     30          1           0        2.433470    3.359900    1.087940
     31          6           0       -1.886270    1.240130    2.254880
     32          8           0       -1.716130    1.561100    3.409660
     33          6           0       -3.071670    1.529610    1.392290
     34          1           0       -3.572790    0.583030    1.146060
     35          1           0       -2.758220    1.993790    0.448500
     36          1           0       -3.761960    2.186850    1.927730
 ---------------------------------------------------------------------
                    Distance matrix (angstroms):
                    1          2          3          4          5
     1  C    0.000000
     2  C    1.518021   0.000000
     3  C    2.626378   1.526661   0.000000
     4  C    3.932841   2.509557   1.543610   0.000000
     5  C    4.311977   2.947682   2.486558   1.529419   0.000000
     6  C    3.544508   2.433063   2.752151   2.527233   1.493106
     7  O    2.420177   1.532457   2.513712   2.882255   2.466370
     8  O    5.088807   3.785530   2.479872   1.402481   2.348615
     9  O    3.073321   2.464209   1.429762   2.396692   2.821054
    10  O    1.408633   2.399849   3.079733   4.414180   4.520641
    11  H    1.108956   2.117335   2.839869   4.257268   4.959972
    12  H    1.107721   2.150002   3.539849   4.657298   4.886885
    13  H    2.139623   1.101398   2.159734   2.739254   3.345920
    14  H    2.890933   2.120894   1.103379   2.197939   3.464252
    15  H    4.158372   2.679201   2.165175   1.109958   2.153255
    16  H    4.869907   3.667697   2.944436   2.155358   1.104767
    17  H    4.323922   3.402564   3.837265   3.533188   2.241570
    18  O    5.348285   3.916601   3.685138   2.437805   1.427231
    19  C    2.354773   3.695124   4.372993   5.790565   5.951964
    20  H    3.272039   4.435759   4.940367   6.294225   6.293919
    21  H    2.635319   4.069952   5.037800   6.390148   6.479893
    22  H    2.657738   4.015033   4.501228   6.015915   6.429948
    23  C    6.586751   5.220649   4.873717   3.606195   2.420456
    24  H    6.642408   5.420369   5.219061   4.179601   2.752985
    25  H    6.983658   5.607979   4.962306   3.632915   2.673801
    26  H    7.328928   5.928793   5.687937   4.344815   3.315524
    27  C    5.648016   4.444553   3.128892   2.385318   3.666685
    28  H    5.246521   4.268095   2.920769   2.755438   4.178423
    29  H    5.866416   4.586313   3.531377   2.637471   3.924138
    30  H    6.652242   5.468243   4.086271   3.281845   4.348963
    31  C    3.352160   3.287246   2.384791   3.591765   4.210879
    32  O    3.304377   3.438368   2.658200   3.998893   4.921946
    33  C    4.431525   4.508635   3.691514   4.692259   4.981536
    34  H    4.239033   4.489226   3.993099   5.028223   5.046617
    35  H    5.188132   4.988172   3.968288   4.635445   4.805958
    36  H    5.033206   5.299570   4.499954   5.584919   6.014481
                    6          7          8          9         10
     6  C    0.000000
     7  O    1.265533   0.000000
     8  O    3.674359   4.207289   0.000000
     9  O    3.051135   3.030460   2.861219   0.000000
    10  O    3.686162   2.795274   5.416679   2.844464   0.000000
    11  H    4.435865   3.380747   5.265555   3.371619   2.096054
    12  H    3.893167   2.638842   5.924532   4.099027   2.085317
    13  H    2.941753   2.076659   4.047221   3.398517   3.331378
    14  H    3.818480   3.440333   2.792882   2.076519   3.522683
    15  H    2.934961   3.113847   2.078571   3.349465   4.933077
    16  H    2.149137   3.194292   2.416194   2.746428   4.788195
    17  H    1.097374   1.980363   4.570050   3.977285   4.311205
    18  O    2.227873   3.239981   3.074876   4.230500   5.721440
    19  C    5.079963   4.139746   6.730855   4.050648   1.434947
    20  H    5.428267   4.664760   7.132043   4.318596   2.037125
    21  H    5.432743   4.369442   7.460177   4.919260   2.102227
    22  H    5.743332   4.792725   6.845863   4.230751   2.096996
    23  C    3.194109   4.383967   3.844012   5.124319   6.761064
    24  H    3.113243   4.349279   4.537661   5.266734   6.634898
    25  H    3.779868   4.975167   3.459694   5.061261   7.084128
    26  H    3.982561   5.081552   4.585579   6.097673   7.627896
    27  C    4.893463   5.206873   1.437684   3.718501   6.160326
    28  H    5.203453   5.292388   2.111741   3.462830   5.756059
    29  H    5.086398   5.339002   2.100124   4.428579   6.587700
    30  H    5.694995   6.142990   2.032024   4.433064   7.053127
    31  C    4.368514   4.132113   3.828177   1.396476   2.928744
    32  O    5.071907   4.622138   4.259265   2.282060   3.217604
    33  C    5.095778   5.028099   4.748234   2.373664   3.580090
    34  H    4.870770   4.755556   5.305306   2.670379   3.120880
    35  H    5.156612   5.351831   4.434387   2.593085   4.397875
    36  H    6.135220   5.969449   5.559891   3.310863   4.192156
                   11         12         13         14         15
    11  H    0.000000
    12  H    1.789798   0.000000
    13  H    2.475091   2.385444   0.000000
    14  H    2.662904   3.826462   2.443601   0.000000
    15  H    4.414179   4.700873   2.439479   2.537837   0.000000
    16  H    5.505816   5.557816   4.258799   3.904896   3.033765
    17  H    5.311245   4.497678   3.856870   4.910484   3.883580
    18  O    6.015962   5.727168   3.982894   4.546866   2.486158
    19  C    2.619317   2.679430   4.486593   4.604128   6.279935
    20  H    3.621161   3.638939   5.339720   5.270788   6.917496
    21  H    2.970039   2.481855   4.688974   5.286682   6.743820
    22  H    2.440576   3.116282   4.718843   4.468234   6.476822
    23  C    7.307453   6.981736   5.395352   5.766960   3.816348
    24  H    7.476012   6.987051   5.733704   6.216279   4.527014
    25  H    7.612037   7.520744   5.860353   5.776401   4.001951
    26  H    8.038585   7.623500   5.932733   6.519363   4.310384
    27  C    5.554114   6.492103   4.489343   2.908971   2.576553
    28  H    4.968602   6.155558   4.370127   2.361514   3.011312
    29  H    5.761080   6.575870   4.364644   3.275398   2.340712
    30  H    6.556017   7.532299   5.567853   3.893357   3.551400
    31  C    3.302595   4.451395   4.193209   2.439204   4.450726
    32  O    2.855459   4.379610   4.140987   2.203651   4.641394
    33  C    4.514726   5.464978   5.512222   3.906592   5.675343
    34  H    4.523285   5.159014   5.564995   4.403781   6.000357
    35  H    5.351316   6.224573   5.968905   4.280435   5.698031
    36  H    4.922761   6.057615   6.254773   4.497259   6.518366
                   16         17         18         19         20
    16  H    0.000000
    17  H    2.657699   0.000000
    18  O    2.122427   2.520468   0.000000
    19  C    6.169448   5.610501   7.151283   0.000000
    20  H    6.336805   5.840329   7.540250   1.095183   0.000000
    21  H    6.816323   5.854928   7.552071   1.102845   1.791709
    22  H    6.651433   6.406996   7.672194   1.102675   1.795685
    23  C    2.497905   3.092323   1.445692   8.174697   8.418336
    24  H    2.643296   2.678927   2.117083   7.996667   8.129208
    25  H    2.402943   3.847797   2.088694   8.492612   8.685607
    26  H    3.555652   3.798726   2.035444   9.043310   9.344645
    27  C    3.852082   5.855103   4.220641   7.364640   7.870352
    28  H    4.363295   6.241482   4.959791   6.827442   7.362692
    29  H    4.352793   6.026355   4.174927   7.812346   8.423994
    30  H    4.320848   6.585950   4.811074   8.238942   8.663276
    31  C    4.067523   5.262784   5.611302   3.720038   3.915505
    32  O    4.968679   6.047706   6.246262   3.778462   4.193907
    33  C    4.539646   5.798871   6.400941   4.104693   3.886870
    34  H    4.615577   5.423472   6.450989   3.548143   3.120986
    35  H    4.158710   5.802283   6.169708   5.083069   4.829343
    36  H    5.594611   6.860177   7.432976   4.406835   4.141205
                   21         22         23         24         25
    21  H    0.000000
    22  H    1.801804   0.000000
    23  C    8.611530   8.760228   0.000000
    24  H    8.399598   8.689059   1.101088   0.000000
    25  H    9.047796   8.997163   1.100202   1.802674   0.000000
    26  H    9.405730   9.633206   1.094392   1.790511   1.804281
    27  C    8.097591   7.281887   5.047888   5.856000   4.630712
    28  H    7.598645   6.602384   5.900074   6.615814   5.538126
    29  H    8.434223   7.743053   5.102089   6.014812   4.823007
    30  H    9.030355   8.138393   5.382339   6.214319   4.763502
    31  C    4.738036   3.593447   6.492037   6.622320   6.350513
    32  O    4.733058   3.331277   7.274610   7.513797   7.161430
    33  C    5.190137   4.072334   7.035709   6.995792   6.801506
    34  H    4.590099   3.754119   7.046701   6.848297   6.936571
    35  H    6.142960   5.134347   6.614649   6.579885   6.239820
    36  H    5.508270   4.144178   8.092406   8.079348   7.819205
                   26         27         28         29         30
    26  H    0.000000
    27  C    5.626034   0.000000
    28  H    6.549522   1.101608   0.000000
    29  H    5.492963   1.102440   1.803570   0.000000
    30  H    5.931705   1.094627   1.786702   1.792935   0.000000
    31  C    7.472263   4.329330   3.746385   5.127987   4.951296
    32  O    8.183880   4.397097   3.577667   5.084307   5.083822
    33  C    8.090163   5.388463   4.894043   6.306451   5.809402
    34  H    8.110102   6.121505   5.710845   6.973304   6.617367
    35  H    7.685195   5.157854   4.821054   6.155956   5.406365
    36  H    9.140403   5.999837   5.360486   6.935314   6.361183
                   31         32         33         34         35
    31  C    0.000000
    32  O    1.210573   0.000000
    33  C    1.494334   2.430692   0.000000
    34  H    2.122643   3.086696   1.098983   0.000000
    35  H    2.142734   3.168855   1.097476   1.772106   0.000000
    36  H    2.126386   2.602518   1.093234   1.794166   1.798023
                   36
    36  H    0.000000
 Stoichiometry    C11H19O6(1+)
 Framework group  C1[X(C11H19O6)]
 Deg. of freedom   102
 Full point group                 C1      NOp   1
 Largest Abelian subgroup         C1      NOp   1
 Largest concise Abelian subgroup C1      NOp   1
                         Standard orientation:                         
 ---------------------------------------------------------------------
 Center     Atomic      Atomic             Coordinates (Angstroms)
 Number     Number       Type             X           Y           Z
 ---------------------------------------------------------------------
      1          6           0        1.995074   -1.282404   -1.193205
      2          6           0        0.515527   -0.943847   -1.166635
      3          6           0        0.075020    0.434738   -0.680682
      4          6           0       -1.465885    0.491923   -0.609455
      5          6           0       -1.930128   -0.532790    0.426674
      6          6           0       -1.114275   -1.783273    0.433024
      7          8           0       -0.127982   -2.044057   -0.315836
      8          8           0       -1.985232    1.729401   -0.202171
      9          8           0        0.574340    0.751012    0.621190
     10          8           0        2.520587   -1.260303    0.113544
     11          1           0        2.476122   -0.529992   -1.850664
     12          1           0        2.128014   -2.275767   -1.665013
     13          1           0        0.096235   -1.131415   -2.167680
     14          1           0        0.467609    1.162333   -1.411384
     15          1           0       -1.870921    0.194534   -1.599159
     16          1           0       -1.924884   -0.056920    1.423685
     17          1           0       -1.460921   -2.642622    1.020888
     18          8           0       -3.197944   -1.083042    0.070508
     19          6           0        3.944284   -1.439565    0.118600
     20          1           0        4.253089   -1.443665    1.169337
     21          1           0        4.226924   -2.398865   -0.346291
     22          1           0        4.444633   -0.611407   -0.410265
     23          6           0       -4.159683   -1.138338    1.148482
     24          1           0       -3.829679   -1.810739    1.955557
     25          1           0       -4.323679   -0.125956    1.546770
     26          1           0       -5.079571   -1.531090    0.704359
     27          6           0       -1.968054    2.741626   -1.222975
     28          1           0       -0.941918    3.056109   -1.471340
     29          1           0       -2.482021    2.390160   -2.132747
     30          1           0       -2.509880    3.597004   -0.807089
     31          6           0        1.743544    1.514453    0.637450
     32          8           0        2.266505    1.908967   -0.380566
     33          6           0        2.198565    1.738022    2.043155
     34          1           0        2.490654    0.773185    2.480805
     35          1           0        1.381984    2.144861    2.653180
     36          1           0        3.052088    2.421135    2.047116
 ---------------------------------------------------------------------
 Rotational constants (GHZ):      0.6598573      0.3473838      0.2775167
 Leave Link  202 at Tue Oct 24 12:49:10 2017, MaxMem=  8053063680 cpu:         0.3
 (Enter /share/apps//g09/l301.exe)
 Standard basis: 6-311+G(d,p) (5D, 7F)
 Ernie: Thresh=  0.10000D-02 Tol=  0.10000D-05 Strict=F.
 There are   505 symmetry adapted cartesian basis functions of A   symmetry.
 There are   488 symmetry adapted basis functions of A   symmetry.
   488 basis functions,   764 primitive gaussians,   505 cartesian basis functions
    66 alpha electrons       66 beta electrons
       nuclear repulsion energy      1403.8319264811 Hartrees.
 IExCor= 1009 DFT=T Ex+Corr=PBE1PBE ExCW=0 ScaHFX=  0.250000
 ScaDFX=  0.750000  0.750000  1.000000  1.000000 ScalE2=  1.000000  1.000000
 IRadAn=      0 IRanWt=     -1 IRanGd=            0 ICorTp=0 IEmpDi=131
 NAtoms=   36 NActive=   36 NUniq=   36 SFac= 1.00D+00 NAtFMM=   60 NAOKFM=F Big=F
 Integral buffers will be    131072 words long.
 Raffenetti 2 integral format.
 Two-electron integral symmetry is turned on.
 R6Disp:  Grimme-D3 Dispersion energy=       -0.0243139058 Hartrees.
 Nuclear repulsion after empirical dispersion term =     1403.8076125753 Hartrees.
 Leave Link  301 at Tue Oct 24 12:49:10 2017, MaxMem=  8053063680 cpu:         0.5
 (Enter /share/apps//g09/l302.exe)
 NPDir=0 NMtPBC=     1 NCelOv=     1 NCel=       1 NClECP=     1 NCelD=      1
         NCelK=      1 NCelE2=     1 NClLst=     1 CellRange=     0.0.
 One-electron integrals computed using PRISM.
 NBasis=   488 RedAO= T EigKep=  2.20D-06  NBF=   488
 NBsUse=   488 1.00D-06 EigRej= -1.00D+00 NBFU=   488
 Precomputing XC quadrature grid using
 IXCGrd= 4 IRadAn=           0 IRanWt=          -1 IRanGd=           0 AccXCQ= 0.00D+00.
 Generated NRdTot=       0 NPtTot=           0 NUsed=           0 NTot=          32
 NSgBfM=   503   503   504   504   504 MxSgAt=    36 MxSgA2=    36.
 Leave Link  302 at Tue Oct 24 12:49:10 2017, MaxMem=  8053063680 cpu:         4.2
 (Enter /share/apps//g09/l303.exe)
 DipDrv:  MaxL=1.
 Leave Link  303 at Tue Oct 24 12:49:10 2017, MaxMem=  8053063680 cpu:         0.9
 (Enter /share/apps//g09/l401.exe)
 ExpMin= 4.38D-02 ExpMax= 8.59D+03 ExpMxC= 1.30D+03 IAcc=2 IRadAn=         4 AccDes= 0.00D+00
 Harris functional with IExCor= 1009 and IRadAn=       4 diagonalized for initial guess.
 HarFok:  IExCor= 1009 AccDes= 0.00D+00 IRadAn=         4 IDoV= 1 UseB2=F ITyADJ=14
 ICtDFT=  3500011 ScaDFX=  1.000000  1.000000  1.000000  1.000000
 FoFCou: FMM=F IPFlag=           0 FMFlag=      100000 FMFlg1=           0
         NFxFlg=           0 DoJE=T BraDBF=F KetDBF=T FulRan=T
         wScrn=  0.000000 ICntrl=     500 IOpCl=  0 I1Cent=   200000004 NGrid=           0
         NMat0=    1 NMatS0=      1 NMatT0=    0 NMatD0=    1 NMtDS0=    0 NMtDT0=    0
 Petite list used in FoFCou.
 Harris En= -881.102542625689    
 JPrj=0 DoOrth=F DoCkMO=F.
 Leave Link  401 at Tue Oct 24 12:49:12 2017, MaxMem=  8053063680 cpu:        13.1
 (Enter /share/apps//g09/l502.exe)
 Closed shell SCF:
 Using DIIS extrapolation, IDIIS=  1040.
 Integral symmetry usage will be decided dynamically.
 Keep R1 ints in memory in canonical form, NReq=7183782884.
 IVT=      792443 IEndB=      792443 NGot=  8053063680 MDV=   934057652
 LenX=   934057652 LenY=   933802122
 Requested convergence on RMS density matrix=1.00D-08 within 128 cycles.
 Requested convergence on MAX density matrix=1.00D-06.
 Requested convergence on             energy=1.00D-06.
 No special actions if energy rises.
 FoFCou: FMM=F IPFlag=           0 FMFlag=           0 FMFlg1=           0
         NFxFlg=           0 DoJE=F BraDBF=F KetDBF=F FulRan=T
         wScrn=  0.000000 ICntrl=     600 IOpCl=  0 I1Cent=           0 NGrid=           0
         NMat0=    1 NMatS0= 119316 NMatT0=    0 NMatD0=    1 NMtDS0=    0 NMtDT0=    0
 Symmetry not used in FoFCou.

 Cycle   1  Pass 1  IDiag  1:
 E= -880.600665087559    
 DIIS: error= 1.61D-02 at cycle   1 NSaved=   1.
 NSaved= 1 IEnMin= 1 EnMin= -880.600665087559     IErMin= 1 ErrMin= 1.61D-02
 ErrMax= 1.61D-02  0.00D+00 EMaxC= 1.00D-01 BMatC= 4.03D-01 BMatP= 4.03D-01
 IDIUse=3 WtCom= 8.39D-01 WtEn= 1.61D-01
 Coeff-Com:  0.100D+01
 Coeff-En:   0.100D+01
 Coeff:      0.100D+01
 Gap=     0.025 Goal=   None    Shift=    0.000
 GapD=    0.025 DampG=0.250 DampE=0.500 DampFc=0.2500 IDamp=-1.
 Damping current iteration by 2.50D-01
 RMSDP=1.88D-02 MaxDP=4.36D+00              OVMax= 9.12D-01

 Cycle   2  Pass 1  IDiag  1:
 E= -880.597459003000     Delta-E=        0.003206084559 Rises=F Damp=T
 DIIS: error= 6.67D-03 at cycle   2 NSaved=   2.
 NSaved= 2 IEnMin= 1 EnMin= -880.600665087559     IErMin= 2 ErrMin= 6.67D-03
 ErrMax= 6.67D-03  0.00D+00 EMaxC= 1.00D-01 BMatC= 1.24D-01 BMatP= 4.03D-01
 IDIUse=3 WtCom= 9.33D-01 WtEn= 6.67D-02
 Coeff-Com: -0.204D+00 0.120D+01
 Coeff-En:   0.509D+00 0.491D+00
 Coeff:     -0.156D+00 0.116D+01
 Gap=    -0.359 Goal=   None    Shift=    0.000
 RMSDP=5.12D-03 MaxDP=3.71D-01 DE= 3.21D-03 OVMax= 5.57D-01

 Cycle   3  Pass 1  IDiag  1:
 E= -880.625830177081     Delta-E=       -0.028371174080 Rises=F Damp=F
 DIIS: error= 2.27D-02 at cycle   3 NSaved=   3.
 NSaved= 3 IEnMin= 3 EnMin= -880.625830177081     IErMin= 2 ErrMin= 6.67D-03
 ErrMax= 2.27D-02  0.00D+00 EMaxC= 1.00D-01 BMatC= 3.02D-01 BMatP= 1.24D-01
 IDIUse=2 WtCom= 0.00D+00 WtEn= 1.00D+00
 Coeff-En:   0.000D+00 0.467D+00 0.533D+00
 Coeff:      0.000D+00 0.467D+00 0.533D+00
 Gap=     0.348 Goal=   None    Shift=    0.000
 RMSDP=6.20D-03 MaxDP=7.56D-01 DE=-2.84D-02 OVMax= 2.76D-01

 Cycle   4  Pass 1  IDiag  1:
 E= -880.805932931989     Delta-E=       -0.180102754908 Rises=F Damp=F
 DIIS: error= 1.74D-02 at cycle   4 NSaved=   4.
 NSaved= 4 IEnMin= 4 EnMin= -880.805932931989     IErMin= 2 ErrMin= 6.67D-03
 ErrMax= 1.74D-02  0.00D+00 EMaxC= 1.00D-01 BMatC= 1.34D-01 BMatP= 1.24D-01
 IDIUse=3 WtCom= 8.26D-01 WtEn= 1.74D-01
 Coeff-Com: -0.871D-01 0.386D+00 0.349D+00 0.351D+00
 Coeff-En:   0.000D+00 0.000D+00 0.277D+00 0.723D+00
 Coeff:     -0.720D-01 0.319D+00 0.337D+00 0.416D+00
 Gap=     0.186 Goal=   None    Shift=    0.000
 RMSDP=2.47D-03 MaxDP=2.32D-01 DE=-1.80D-01 OVMax= 1.22D-01

 Cycle   5  Pass 1  IDiag  1:
 E= -880.886557062368     Delta-E=       -0.080624130379 Rises=F Damp=F
 DIIS: error= 7.41D-03 at cycle   5 NSaved=   5.
 NSaved= 5 IEnMin= 5 EnMin= -880.886557062368     IErMin= 2 ErrMin= 6.67D-03
 ErrMax= 7.41D-03  0.00D+00 EMaxC= 1.00D-01 BMatC= 2.37D-02 BMatP= 1.24D-01
 IDIUse=3 WtCom= 9.26D-01 WtEn= 7.41D-02
 Coeff-Com: -0.578D-01 0.111D+00 0.894D-01 0.281D+00 0.577D+00
 Coeff-En:   0.000D+00 0.000D+00 0.000D+00 0.198D+00 0.802D+00
 Coeff:     -0.535D-01 0.102D+00 0.828D-01 0.274D+00 0.594D+00
 Gap=     0.151 Goal=   None    Shift=    0.000
 RMSDP=1.22D-03 MaxDP=2.17D-01 DE=-8.06D-02 OVMax= 3.72D-02

 Cycle   6  Pass 1  IDiag  1:
 E= -880.904167129726     Delta-E=       -0.017610067358 Rises=F Damp=F
 DIIS: error= 8.35D-04 at cycle   6 NSaved=   6.
 NSaved= 6 IEnMin= 6 EnMin= -880.904167129726     IErMin= 6 ErrMin= 8.35D-04
 ErrMax= 8.35D-04  0.00D+00 EMaxC= 1.00D-01 BMatC= 8.71D-04 BMatP= 2.37D-02
 IDIUse=3 WtCom= 9.92D-01 WtEn= 8.35D-03
 Coeff-Com: -0.403D-01 0.521D-01-0.956D-02 0.668D-01 0.277D+00 0.654D+00
 Coeff-En:   0.000D+00 0.000D+00 0.000D+00 0.000D+00 0.000D+00 0.100D+01
 Coeff:     -0.399D-01 0.517D-01-0.948D-02 0.662D-01 0.274D+00 0.657D+00
 Gap=     0.148 Goal=   None    Shift=    0.000
 RMSDP=3.99D-04 MaxDP=7.39D-02 DE=-1.76D-02 OVMax= 6.25D-03

 Cycle   7  Pass 1  IDiag  1:
 E= -880.904786654212     Delta-E=       -0.000619524486 Rises=F Damp=F
 DIIS: error= 4.49D-04 at cycle   7 NSaved=   7.
 NSaved= 7 IEnMin= 7 EnMin= -880.904786654212     IErMin= 7 ErrMin= 4.49D-04
 ErrMax= 4.49D-04  0.00D+00 EMaxC= 1.00D-01 BMatC= 2.31D-04 BMatP= 8.71D-04
 IDIUse=3 WtCom= 9.96D-01 WtEn= 4.49D-03
 Coeff-Com: -0.304D-01 0.380D-01-0.192D-01 0.523D-02 0.110D+00 0.389D+00
 Coeff-Com:  0.507D+00
 Coeff-En:   0.000D+00 0.000D+00 0.000D+00 0.000D+00 0.000D+00 0.000D+00
 Coeff-En:   0.100D+01
 Coeff:     -0.302D-01 0.379D-01-0.191D-01 0.521D-02 0.109D+00 0.388D+00
 Coeff:      0.509D+00
 Gap=     0.148 Goal=   None    Shift=    0.000
 RMSDP=2.73D-04 MaxDP=6.60D-02 DE=-6.20D-04 OVMax= 3.67D-03

 Cycle   8  Pass 1  IDiag  1:
 E= -880.904936481591     Delta-E=       -0.000149827379 Rises=F Damp=F
 DIIS: error= 2.88D-04 at cycle   8 NSaved=   8.
 NSaved= 8 IEnMin= 8 EnMin= -880.904936481591     IErMin= 8 ErrMin= 2.88D-04
 ErrMax= 2.88D-04  0.00D+00 EMaxC= 1.00D-01 BMatC= 6.11D-05 BMatP= 2.31D-04
 IDIUse=3 WtCom= 9.97D-01 WtEn= 2.88D-03
 Coeff-Com: -0.168D-01 0.223D-01-0.116D-01-0.389D-02 0.262D-01 0.861D-01
 Coeff-Com:  0.204D+00 0.694D+00
 Coeff-En:   0.000D+00 0.000D+00 0.000D+00 0.000D+00 0.000D+00 0.000D+00
 Coeff-En:   0.000D+00 0.100D+01
 Coeff:     -0.167D-01 0.223D-01-0.116D-01-0.388D-02 0.262D-01 0.859D-01
 Coeff:      0.203D+00 0.695D+00
 Gap=     0.147 Goal=   None    Shift=    0.000
 RMSDP=4.44D-05 MaxDP=5.16D-03 DE=-1.50D-04 OVMax= 1.11D-03

 Cycle   9  Pass 1  IDiag  1:
 E= -880.904977561120     Delta-E=       -0.000041079529 Rises=F Damp=F
 DIIS: error= 1.68D-04 at cycle   9 NSaved=   9.
 NSaved= 9 IEnMin= 9 EnMin= -880.904977561120     IErMin= 9 ErrMin= 1.68D-04
 ErrMax= 1.68D-04  0.00D+00 EMaxC= 1.00D-01 BMatC= 2.09D-05 BMatP= 6.11D-05
 IDIUse=3 WtCom= 9.98D-01 WtEn= 1.68D-03
 Coeff-Com: -0.496D-02 0.769D-02-0.369D-02-0.257D-02-0.128D-01-0.728D-01
 Coeff-Com: -0.428D-01 0.393D+00 0.739D+00
 Coeff-En:   0.000D+00 0.000D+00 0.000D+00 0.000D+00 0.000D+00 0.000D+00
 Coeff-En:   0.000D+00 0.000D+00 0.100D+01
 Coeff:     -0.495D-02 0.767D-02-0.368D-02-0.257D-02-0.128D-01-0.727D-01
 Coeff:     -0.428D-01 0.392D+00 0.740D+00
 Gap=     0.146 Goal=   None    Shift=    0.000
 RMSDP=6.04D-05 MaxDP=1.52D-02 DE=-4.11D-05 OVMax= 1.03D-03

 Cycle  10  Pass 1  IDiag  1:
 E= -880.904997851367     Delta-E=       -0.000020290247 Rises=F Damp=F
 DIIS: error= 6.08D-05 at cycle  10 NSaved=  10.
 NSaved=10 IEnMin=10 EnMin= -880.904997851367     IErMin=10 ErrMin= 6.08D-05
 ErrMax= 6.08D-05  0.00D+00 EMaxC= 1.00D-01 BMatC= 2.47D-06 BMatP= 2.09D-05
 IDIUse=1 WtCom= 1.00D+00 WtEn= 0.00D+00
 Coeff-Com: -0.201D-03 0.588D-03-0.281D-03 0.329D-03-0.781D-02-0.456D-01
 Coeff-Com: -0.586D-01-0.402D-02 0.303D+00 0.812D+00
 Coeff:     -0.201D-03 0.588D-03-0.281D-03 0.329D-03-0.781D-02-0.456D-01
 Coeff:     -0.586D-01-0.402D-02 0.303D+00 0.812D+00
 Gap=     0.146 Goal=   None    Shift=    0.000
 RMSDP=2.39D-05 MaxDP=5.62D-03 DE=-2.03D-05 OVMax= 4.76D-04

 Cycle  11  Pass 1  IDiag  1:
 E= -880.905000206781     Delta-E=       -0.000002355414 Rises=F Damp=F
 DIIS: error= 1.26D-05 at cycle  11 NSaved=  11.
 NSaved=11 IEnMin=11 EnMin= -880.905000206781     IErMin=11 ErrMin= 1.26D-05
 ErrMax= 1.26D-05  0.00D+00 EMaxC= 1.00D-01 BMatC= 1.19D-07 BMatP= 2.47D-06
 IDIUse=1 WtCom= 1.00D+00 WtEn= 0.00D+00
 Coeff-Com:  0.191D-03-0.149D-03 0.939D-04 0.531D-03-0.281D-02-0.181D-01
 Coeff-Com: -0.272D-01-0.375D-01 0.100D+00 0.478D+00 0.507D+00
 Coeff:      0.191D-03-0.149D-03 0.939D-04 0.531D-03-0.281D-02-0.181D-01
 Coeff:     -0.272D-01-0.375D-01 0.100D+00 0.478D+00 0.507D+00
 Gap=     0.146 Goal=   None    Shift=    0.000
 RMSDP=3.01D-06 MaxDP=3.09D-04 DE=-2.36D-06 OVMax= 6.95D-05

 Cycle  12  Pass 1  IDiag  1:
 E= -880.905000288771     Delta-E=       -0.000000081990 Rises=F Damp=F
 DIIS: error= 4.92D-06 at cycle  12 NSaved=  12.
 NSaved=12 IEnMin=12 EnMin= -880.905000288771     IErMin=12 ErrMin= 4.92D-06
 ErrMax= 4.92D-06  0.00D+00 EMaxC= 1.00D-01 BMatC= 1.70D-08 BMatP= 1.19D-07
 IDIUse=1 WtCom= 1.00D+00 WtEn= 0.00D+00
 Coeff-Com:  0.140D-03-0.170D-03 0.820D-04 0.280D-03-0.642D-03-0.484D-02
 Coeff-Com: -0.793D-02-0.180D-01 0.216D-01 0.174D+00 0.301D+00 0.534D+00
 Coeff:      0.140D-03-0.170D-03 0.820D-04 0.280D-03-0.642D-03-0.484D-02
 Coeff:     -0.793D-02-0.180D-01 0.216D-01 0.174D+00 0.301D+00 0.534D+00
 Gap=     0.146 Goal=   None    Shift=    0.000
 RMSDP=1.02D-06 MaxDP=2.00D-04 DE=-8.20D-08 OVMax= 2.11D-05

 Cycle  13  Pass 1  IDiag  1:
 E= -880.905000299387     Delta-E=       -0.000000010616 Rises=F Damp=F
 DIIS: error= 1.65D-06 at cycle  13 NSaved=  13.
 NSaved=13 IEnMin=13 EnMin= -880.905000299387     IErMin=13 ErrMin= 1.65D-06
 ErrMax= 1.65D-06  0.00D+00 EMaxC= 1.00D-01 BMatC= 2.71D-09 BMatP= 1.70D-08
 IDIUse=1 WtCom= 1.00D+00 WtEn= 0.00D+00
 Coeff-Com:  0.279D-04-0.351D-04 0.261D-04 0.709D-04 0.373D-04-0.285D-03
 Coeff-Com: -0.430D-03-0.288D-02 0.896D-03 0.354D-01 0.945D-01 0.258D+00
 Coeff-Com:  0.615D+00
 Coeff:      0.279D-04-0.351D-04 0.261D-04 0.709D-04 0.373D-04-0.285D-03
 Coeff:     -0.430D-03-0.288D-02 0.896D-03 0.354D-01 0.945D-01 0.258D+00
 Coeff:      0.615D+00
 Gap=     0.146 Goal=   None    Shift=    0.000
 RMSDP=7.48D-07 MaxDP=1.82D-04 DE=-1.06D-08 OVMax= 1.37D-05

 Cycle  14  Pass 1  IDiag  1:
 E= -880.905000302085     Delta-E=       -0.000000002698 Rises=F Damp=F
 DIIS: error= 4.75D-07 at cycle  14 NSaved=  14.
 NSaved=14 IEnMin=14 EnMin= -880.905000302085     IErMin=14 ErrMin= 4.75D-07
 ErrMax= 4.75D-07  0.00D+00 EMaxC= 1.00D-01 BMatC= 1.37D-10 BMatP= 2.71D-09
 IDIUse=1 WtCom= 1.00D+00 WtEn= 0.00D+00
 Coeff-Com:  0.468D-05-0.685D-05 0.526D-05 0.875D-05 0.641D-04 0.211D-03
 Coeff-Com:  0.466D-03 0.472D-03-0.975D-03 0.147D-02 0.128D-01 0.516D-01
 Coeff-Com:  0.220D+00 0.714D+00
 Coeff:      0.468D-05-0.685D-05 0.526D-05 0.875D-05 0.641D-04 0.211D-03
 Coeff:      0.466D-03 0.472D-03-0.975D-03 0.147D-02 0.128D-01 0.516D-01
 Coeff:      0.220D+00 0.714D+00
 Gap=     0.146 Goal=   None    Shift=    0.000
 RMSDP=1.53D-07 MaxDP=2.71D-05 DE=-2.70D-09 OVMax= 2.88D-06

 Cycle  15  Pass 1  IDiag  1:
 E= -880.905000302200     Delta-E=       -0.000000000114 Rises=F Damp=F
 DIIS: error= 1.30D-07 at cycle  15 NSaved=  15.
 NSaved=15 IEnMin=15 EnMin= -880.905000302200     IErMin=15 ErrMin= 1.30D-07
 ErrMax= 1.30D-07  0.00D+00 EMaxC= 1.00D-01 BMatC= 1.20D-11 BMatP= 1.37D-10
 IDIUse=1 WtCom= 1.00D+00 WtEn= 0.00D+00
 Coeff-Com:  0.724D-06-0.115D-05 0.304D-06-0.182D-05 0.248D-04 0.100D-03
 Coeff-Com:  0.259D-03 0.493D-03-0.347D-03-0.225D-02-0.271D-02-0.152D-02
 Coeff-Com:  0.451D-01 0.356D+00 0.605D+00
 Coeff:      0.724D-06-0.115D-05 0.304D-06-0.182D-05 0.248D-04 0.100D-03
 Coeff:      0.259D-03 0.493D-03-0.347D-03-0.225D-02-0.271D-02-0.152D-02
 Coeff:      0.451D-01 0.356D+00 0.605D+00
 Gap=     0.146 Goal=   None    Shift=    0.000
 RMSDP=4.65D-08 MaxDP=8.89D-06 DE=-1.14D-10 OVMax= 8.11D-07

 Cycle  16  Pass 1  IDiag  1:
 E= -880.905000302185     Delta-E=        0.000000000015 Rises=F Damp=F
 DIIS: error= 3.20D-08 at cycle  16 NSaved=  16.
 NSaved=16 IEnMin=15 EnMin= -880.905000302200     IErMin=16 ErrMin= 3.20D-08
 ErrMax= 3.20D-08  0.00D+00 EMaxC= 1.00D-01 BMatC= 9.72D-13 BMatP= 1.20D-11
 IDIUse=1 WtCom= 1.00D+00 WtEn= 0.00D+00
 Coeff-Com:  0.227D-06-0.323D-06-0.373D-06-0.158D-05 0.379D-05 0.185D-04
 Coeff-Com:  0.710D-04 0.141D-03 0.372D-05-0.123D-02-0.265D-02-0.681D-02
 Coeff-Com: -0.573D-02 0.747D-01 0.272D+00 0.669D+00
 Coeff:      0.227D-06-0.323D-06-0.373D-06-0.158D-05 0.379D-05 0.185D-04
 Coeff:      0.710D-04 0.141D-03 0.372D-05-0.123D-02-0.265D-02-0.681D-02
 Coeff:     -0.573D-02 0.747D-01 0.272D+00 0.669D+00
 Gap=     0.146 Goal=   None    Shift=    0.000
 RMSDP=1.11D-08 MaxDP=2.14D-06 DE= 1.46D-11 OVMax= 2.75D-07

 Cycle  17  Pass 1  IDiag  1:
 E= -880.905000302193     Delta-E=       -0.000000000008 Rises=F Damp=F
 DIIS: error= 1.82D-08 at cycle  17 NSaved=  17.
 NSaved=17 IEnMin=15 EnMin= -880.905000302200     IErMin=17 ErrMin= 1.82D-08
 ErrMax= 1.82D-08  0.00D+00 EMaxC= 1.00D-01 BMatC= 1.40D-13 BMatP= 9.72D-13
 IDIUse=1 WtCom= 1.00D+00 WtEn= 0.00D+00
 Coeff-Com:  0.343D-06-0.494D-06-0.169D-06-0.471D-06-0.942D-06-0.233D-05
 Coeff-Com:  0.930D-05 0.509D-05 0.550D-04-0.380D-03-0.956D-03-0.310D-02
 Coeff-Com: -0.755D-02-0.120D-02 0.688D-01 0.337D+00 0.607D+00
 Coeff:      0.343D-06-0.494D-06-0.169D-06-0.471D-06-0.942D-06-0.233D-05
 Coeff:      0.930D-05 0.509D-05 0.550D-04-0.380D-03-0.956D-03-0.310D-02
 Coeff:     -0.755D-02-0.120D-02 0.688D-01 0.337D+00 0.607D+00
 Gap=     0.146 Goal=   None    Shift=    0.000
 RMSDP=8.86D-09 MaxDP=1.51D-06 DE=-8.19D-12 OVMax= 1.14D-07

 Cycle  18  Pass 1  IDiag  1:
 E= -880.905000302188     Delta-E=        0.000000000005 Rises=F Damp=F
 DIIS: error= 4.59D-09 at cycle  18 NSaved=  18.
 NSaved=18 IEnMin=15 EnMin= -880.905000302200     IErMin=18 ErrMin= 4.59D-09
 ErrMax= 4.59D-09  0.00D+00 EMaxC= 1.00D-01 BMatC= 2.05D-14 BMatP= 1.40D-13
 IDIUse=1 WtCom= 1.00D+00 WtEn= 0.00D+00
 Coeff-Com:  0.689D-07-0.937D-07-0.224D-07-0.228D-07-0.916D-06-0.349D-05
 Coeff-Com: -0.425D-05-0.140D-04 0.360D-04 0.176D-04 0.173D-04-0.275D-03
 Coeff-Com: -0.195D-02-0.920D-02-0.108D-01 0.322D-01 0.222D+00 0.768D+00
 Coeff:      0.689D-07-0.937D-07-0.224D-07-0.228D-07-0.916D-06-0.349D-05
 Coeff:     -0.425D-05-0.140D-04 0.360D-04 0.176D-04 0.173D-04-0.275D-03
 Coeff:     -0.195D-02-0.920D-02-0.108D-01 0.322D-01 0.222D+00 0.768D+00
 Gap=     0.146 Goal=   None    Shift=    0.000
 RMSDP=7.86D-09 MaxDP=1.17D-06 DE= 5.46D-12 OVMax= 4.45D-08

 Cycle  19  Pass 1  IDiag  1:
 E= -880.905000302191     Delta-E=       -0.000000000003 Rises=F Damp=F
 DIIS: error= 1.18D-09 at cycle  19 NSaved=  19.
 NSaved=19 IEnMin=15 EnMin= -880.905000302200     IErMin=19 ErrMin= 1.18D-09
 ErrMax= 1.18D-09  0.00D+00 EMaxC= 1.00D-01 BMatC= 1.11D-15 BMatP= 2.05D-14
 IDIUse=1 WtCom= 1.00D+00 WtEn= 0.00D+00
 Large coefficients: NSaved= 19 BigCof=    0.00 CofMax=   10.00 Det=-5.16D-15
 Inversion failed.  Reducing to 18 matrices.
 Large coefficients: NSaved= 18 BigCof=    0.00 CofMax=   10.00 Det=-5.17D-15
 Inversion failed.  Reducing to 17 matrices.
 Large coefficients: NSaved= 17 BigCof=    0.00 CofMax=   10.00 Det=-5.18D-15
 Inversion failed.  Reducing to 16 matrices.
 Large coefficients: NSaved= 16 BigCof=    0.00 CofMax=   10.00 Det=-5.22D-15
 Inversion failed.  Reducing to 15 matrices.
 Coeff-Com: -0.306D-06-0.114D-05-0.186D-05-0.461D-05 0.115D-04 0.352D-04
 Coeff-Com:  0.910D-04 0.157D-03 0.164D-05-0.283D-02-0.969D-02-0.179D-01
 Coeff-Com:  0.327D-01 0.280D+00 0.718D+00
 Coeff:     -0.306D-06-0.114D-05-0.186D-05-0.461D-05 0.115D-04 0.352D-04
 Coeff:      0.910D-04 0.157D-03 0.164D-05-0.283D-02-0.969D-02-0.179D-01
 Coeff:      0.327D-01 0.280D+00 0.718D+00
 Gap=     0.146 Goal=   None    Shift=    0.000
 RMSDP=8.07D-09 MaxDP=1.34D-06 DE=-2.73D-12 OVMax= 1.66D-08

 Cycle  20  Pass 1  IDiag  1:
 E= -880.905000302196     Delta-E=       -0.000000000005 Rises=F Damp=F
 DIIS: error= 2.69D-10 at cycle  20 NSaved=  16.
 NSaved=16 IEnMin=11 EnMin= -880.905000302200     IErMin=16 ErrMin= 2.69D-10
 ErrMax= 2.69D-10  0.00D+00 EMaxC= 1.00D-01 BMatC= 8.16D-17 BMatP= 1.11D-15
 IDIUse=1 WtCom= 1.00D+00 WtEn= 0.00D+00
 Large coefficients: NSaved= 16 BigCof=    0.00 CofMax=   10.00 Det=-5.86D-16
 Inversion failed.  Reducing to 15 matrices.
 Coeff-Com:  0.370D-07 0.482D-07-0.346D-06 0.364D-06 0.628D-05 0.247D-04
 Coeff-Com:  0.625D-04 0.177D-03-0.341D-04-0.222D-02-0.895D-02-0.938D-02
 Coeff-Com:  0.253D-01 0.263D+00 0.732D+00
 Coeff:      0.370D-07 0.482D-07-0.346D-06 0.364D-06 0.628D-05 0.247D-04
 Coeff:      0.625D-04 0.177D-03-0.341D-04-0.222D-02-0.895D-02-0.938D-02
 Coeff:      0.253D-01 0.263D+00 0.732D+00
 Gap=     0.146 Goal=   None    Shift=    0.000
 RMSDP=9.16D-09 MaxDP=1.40D-06 DE=-5.46D-12 OVMax= 3.16D-09

 Cycle  21  Pass 1  IDiag  1:
 E= -880.905000302201     Delta-E=       -0.000000000005 Rises=F Damp=F
 DIIS: error= 6.60D-11 at cycle  21 NSaved=  16.
 NSaved=16 IEnMin=16 EnMin= -880.905000302201     IErMin=16 ErrMin= 6.60D-11
 ErrMax= 6.60D-11  0.00D+00 EMaxC= 1.00D-01 BMatC= 6.66D-18 BMatP= 8.16D-17
 IDIUse=1 WtCom= 1.00D+00 WtEn= 0.00D+00
 Large coefficients: NSaved= 16 BigCof=    0.00 CofMax=   10.00 Det=-5.66D-17
 Inversion failed.  Reducing to 15 matrices.
 Coeff-Com: -0.124D-07-0.271D-07-0.216D-06 0.164D-05 0.606D-05 0.183D-04
 Coeff-Com:  0.599D-04-0.211D-05-0.684D-03-0.320D-02-0.594D-02-0.420D-02
 Coeff-Com:  0.585D-01 0.271D+00 0.685D+00
 Coeff:     -0.124D-07-0.271D-07-0.216D-06 0.164D-05 0.606D-05 0.183D-04
 Coeff:      0.599D-04-0.211D-05-0.684D-03-0.320D-02-0.594D-02-0.420D-02
 Coeff:      0.585D-01 0.271D+00 0.685D+00
 Gap=     0.146 Goal=   None    Shift=    0.000
 RMSDP=2.17D-09 MaxDP=3.97D-07 DE=-4.55D-12 OVMax= 1.31D-09

 SCF Done:  E(RPBE1PBE) =  -880.905000302     A.U. after   21 cycles
            NFock= 21  Conv=0.22D-08     -V/T= 2.0043
 KE= 8.771545715527D+02 PE=-4.851093815411D+03 EE= 1.689226630981D+03
 Leave Link  502 at Tue Oct 24 12:54:16 2017, MaxMem=  8053063680 cpu:       950.7
 (Enter /share/apps//g09/l601.exe)
 Copying SCF densities to generalized density rwf, IOpCl= 0 IROHF=0.

 **********************************************************************

            Population analysis using the SCF density.

 **********************************************************************

 Orbital symmetries:
       Occupied  (A) (A) (A) (A) (A) (A) (A) (A) (A) (A) (A) (A)
                 (A) (A) (A) (A) (A) (A) (A) (A) (A) (A) (A) (A)
                 (A) (A) (A) (A) (A) (A) (A) (A) (A) (A) (A) (A)
                 (A) (A) (A) (A) (A) (A) (A) (A) (A) (A) (A) (A)
                 (A) (A) (A) (A) (A) (A) (A) (A) (A) (A) (A) (A)
                 (A) (A) (A) (A) (A) (A)
       Virtual   (A) (A) (A) (A) (A) (A) (A) (A) (A) (A) (A) (A)
                 (A) (A) (A) (A) (A) (A) (A) (A) (A) (A) (A) (A)
                 (A) (A) (A) (A) (A) (A) (A) (A) (A) (A) (A) (A)
                 (A) (A) (A) (A) (A) (A) (A) (A) (A) (A) (A) (A)
                 (A) (A) (A) (A) (A) (A) (A) (A) (A) (A) (A) (A)
                 (A) (A) (A) (A) (A) (A) (A) (A) (A) (A) (A) (A)
                 (A) (A) (A) (A) (A) (A) (A) (A) (A) (A) (A) (A)
                 (A) (A) (A) (A) (A) (A) (A) (A) (A) (A) (A) (A)
                 (A) (A) (A) (A) (A) (A) (A) (A) (A) (A) (A) (A)
                 (A) (A) (A) (A) (A) (A) (A) (A) (A) (A) (A) (A)
                 (A) (A) (A) (A) (A) (A) (A) (A) (A) (A) (A) (A)
                 (A) (A) (A) (A) (A) (A) (A) (A) (A) (A) (A) (A)
                 (A) (A) (A) (A) (A) (A) (A) (A) (A) (A) (A) (A)
                 (A) (A) (A) (A) (A) (A) (A) (A) (A) (A) (A) (A)
                 (A) (A) (A) (A) (A) (A) (A) (A) (A) (A) (A) (A)
                 (A) (A) (A) (A) (A) (A) (A) (A) (A) (A) (A) (A)
                 (A) (A) (A) (A) (A) (A) (A) (A) (A) (A) (A) (A)
                 (A) (A) (A) (A) (A) (A) (A) (A) (A) (A) (A) (A)
                 (A) (A) (A) (A) (A) (A) (A) (A) (A) (A) (A) (A)
                 (A) (A) (A) (A) (A) (A) (A) (A) (A) (A) (A) (A)
                 (A) (A) (A) (A) (A) (A) (A) (A) (A) (A) (A) (A)
                 (A) (A) (A) (A) (A) (A) (A) (A) (A) (A) (A) (A)
                 (A) (A) (A) (A) (A) (A) (A) (A) (A) (A) (A) (A)
                 (A) (A) (A) (A) (A) (A) (A) (A) (A) (A) (A) (A)
                 (A) (A) (A) (A) (A) (A) (A) (A) (A) (A) (A) (A)
                 (A) (A) (A) (A) (A) (A) (A) (A) (A) (A) (A) (A)
                 (A) (A) (A) (A) (A) (A) (A) (A) (A) (A) (A) (A)
                 (A) (A) (A) (A) (A) (A) (A) (A) (A) (A) (A) (A)
                 (A) (A) (A) (A) (A) (A) (A) (A) (A) (A) (A) (A)
                 (A) (A) (A) (A) (A) (A) (A) (A) (A) (A) (A) (A)
                 (A) (A) (A) (A) (A) (A) (A) (A) (A) (A) (A) (A)
                 (A) (A) (A) (A) (A) (A) (A) (A) (A) (A) (A) (A)
                 (A) (A) (A) (A) (A) (A) (A) (A) (A) (A) (A) (A)
                 (A) (A) (A) (A) (A) (A) (A) (A) (A) (A) (A) (A)
                 (A) (A) (A) (A) (A) (A) (A) (A) (A) (A) (A) (A)
                 (A) (A)
 The electronic state is 1-A.
 Alpha  occ. eigenvalues --  -19.49380 -19.39183 -19.38424 -19.35486 -19.34536
 Alpha  occ. eigenvalues --  -19.32301 -10.54738 -10.48450 -10.47830 -10.46798
 Alpha  occ. eigenvalues --  -10.44912 -10.44666 -10.42454 -10.40776 -10.38636
 Alpha  occ. eigenvalues --  -10.37867 -10.34271  -1.35230  -1.26612  -1.24189
 Alpha  occ. eigenvalues --   -1.21101  -1.20170  -1.17996  -1.01251  -0.99669
 Alpha  occ. eigenvalues --   -0.91454  -0.89271  -0.86782  -0.85945  -0.83057
 Alpha  occ. eigenvalues --   -0.81244  -0.78481  -0.76865  -0.73624  -0.72107
 Alpha  occ. eigenvalues --   -0.69695  -0.69361  -0.68199  -0.64886  -0.63982
 Alpha  occ. eigenvalues --   -0.63524  -0.63488  -0.62374  -0.62117  -0.61043
 Alpha  occ. eigenvalues --   -0.60215  -0.59532  -0.58975  -0.58098  -0.56540
 Alpha  occ. eigenvalues --   -0.55262  -0.54961  -0.53730  -0.53424  -0.52847
 Alpha  occ. eigenvalues --   -0.52047  -0.51420  -0.50819  -0.50058  -0.47764
 Alpha  occ. eigenvalues --   -0.47521  -0.45427  -0.44784  -0.42389  -0.41873
 Alpha  occ. eigenvalues --   -0.40771
 Alpha virt. eigenvalues --   -0.26171  -0.12567  -0.11517  -0.11266  -0.10727
 Alpha virt. eigenvalues --   -0.08618  -0.08215  -0.07720  -0.07298  -0.07011
 Alpha virt. eigenvalues --   -0.06420  -0.05896  -0.05494  -0.04812  -0.04607
 Alpha virt. eigenvalues --   -0.04299  -0.03628  -0.03261  -0.02816  -0.02642
 Alpha virt. eigenvalues --   -0.02359  -0.01898  -0.01242  -0.00912  -0.00374
 Alpha virt. eigenvalues --   -0.00206   0.00008   0.00049   0.00896   0.01437
 Alpha virt. eigenvalues --    0.01927   0.02022   0.02677   0.03096   0.03818
 Alpha virt. eigenvalues --    0.03865   0.04026   0.04317   0.05019   0.05369
 Alpha virt. eigenvalues --    0.05697   0.05834   0.06252   0.06291   0.06831
 Alpha virt. eigenvalues --    0.07152   0.07728   0.08198   0.08621   0.08826
 Alpha virt. eigenvalues --    0.09017   0.09407   0.09902   0.10275   0.10745
 Alpha virt. eigenvalues --    0.11076   0.11248   0.11393   0.11548   0.12281
 Alpha virt. eigenvalues --    0.12681   0.13088   0.13154   0.13450   0.13660
 Alpha virt. eigenvalues --    0.13931   0.14494   0.15108   0.15637   0.15950
 Alpha virt. eigenvalues --    0.16448   0.16645   0.17641   0.17922   0.18674
 Alpha virt. eigenvalues --    0.18815   0.19429   0.20268   0.20367   0.20918
 Alpha virt. eigenvalues --    0.21246   0.21360   0.21916   0.22174   0.23079
 Alpha virt. eigenvalues --    0.23936   0.24430   0.24541   0.24903   0.25805
 Alpha virt. eigenvalues --    0.26498   0.26809   0.27567   0.28010   0.28346
 Alpha virt. eigenvalues --    0.28842   0.29447   0.30976   0.31452   0.32116
 Alpha virt. eigenvalues --    0.32804   0.33452   0.34297   0.34595   0.35116
 Alpha virt. eigenvalues --    0.36040   0.36087   0.37245   0.37846   0.38475
 Alpha virt. eigenvalues --    0.38555   0.39394   0.40360   0.40926   0.42569
 Alpha virt. eigenvalues --    0.42887   0.43387   0.44713   0.44822   0.45146
 Alpha virt. eigenvalues --    0.47085   0.48096   0.48618   0.48815   0.49901
 Alpha virt. eigenvalues --    0.50431   0.51458   0.51697   0.52581   0.52953
 Alpha virt. eigenvalues --    0.53486   0.53978   0.54690   0.55093   0.55772
 Alpha virt. eigenvalues --    0.56301   0.56880   0.57527   0.57616   0.58441
 Alpha virt. eigenvalues --    0.58932   0.59348   0.60119   0.60926   0.61191
 Alpha virt. eigenvalues --    0.61885   0.62793   0.63235   0.63753   0.64762
 Alpha virt. eigenvalues --    0.65498   0.65800   0.67442   0.68382   0.69049
 Alpha virt. eigenvalues --    0.70893   0.72430   0.73444   0.77869   0.81617
 Alpha virt. eigenvalues --    0.82361   0.83685   0.84915   0.87230   0.88354
 Alpha virt. eigenvalues --    0.90733   0.91088   0.92871   0.93625   0.94078
 Alpha virt. eigenvalues --    0.96155   0.96968   0.97932   0.98899   0.99983
 Alpha virt. eigenvalues --    1.00416   1.02004   1.02674   1.05092   1.05366
 Alpha virt. eigenvalues --    1.07045   1.08531   1.11352   1.12390   1.12502
 Alpha virt. eigenvalues --    1.13515   1.15168   1.16053   1.17379   1.17624
 Alpha virt. eigenvalues --    1.19493   1.20878   1.21415   1.22797   1.24228
 Alpha virt. eigenvalues --    1.26124   1.26753   1.27790   1.28448   1.29563
 Alpha virt. eigenvalues --    1.30988   1.31251   1.32781   1.34200   1.34754
 Alpha virt. eigenvalues --    1.35414   1.36096   1.36380   1.38339   1.39342
 Alpha virt. eigenvalues --    1.40714   1.41164   1.42227   1.42928   1.43624
 Alpha virt. eigenvalues --    1.44007   1.44776   1.45370   1.45660   1.46272
 Alpha virt. eigenvalues --    1.46977   1.47642   1.48021   1.48478   1.49186
 Alpha virt. eigenvalues --    1.50469   1.51041   1.51851   1.52661   1.53244
 Alpha virt. eigenvalues --    1.54150   1.54962   1.56002   1.58005   1.58575
 Alpha virt. eigenvalues --    1.58853   1.59810   1.60335   1.61572   1.62475
 Alpha virt. eigenvalues --    1.63445   1.64393   1.64753   1.66079   1.67898
 Alpha virt. eigenvalues --    1.68177   1.68923   1.70412   1.71115   1.72759
 Alpha virt. eigenvalues --    1.73158   1.75235   1.76596   1.78753   1.79880
 Alpha virt. eigenvalues --    1.81781   1.83104   1.83778   1.84876   1.86940
 Alpha virt. eigenvalues --    1.87808   1.89170   1.92587   1.93315   1.95447
 Alpha virt. eigenvalues --    1.96660   1.97562   1.99117   2.00906   2.02068
 Alpha virt. eigenvalues --    2.02715   2.03432   2.03960   2.05239   2.06126
 Alpha virt. eigenvalues --    2.07899   2.09317   2.09905   2.10319   2.12668
 Alpha virt. eigenvalues --    2.14253   2.15310   2.17164   2.20633   2.22619
 Alpha virt. eigenvalues --    2.27885   2.31014   2.32200   2.32949   2.34155
 Alpha virt. eigenvalues --    2.36048   2.37515   2.38384   2.38658   2.39984
 Alpha virt. eigenvalues --    2.40895   2.41473   2.41804   2.42500   2.42785
 Alpha virt. eigenvalues --    2.43621   2.44292   2.45343   2.46228   2.47836
 Alpha virt. eigenvalues --    2.49041   2.50065   2.50816   2.51750   2.52787
 Alpha virt. eigenvalues --    2.55830   2.56579   2.57715   2.57991   2.60741
 Alpha virt. eigenvalues --    2.62751   2.63564   2.67411   2.68968   2.69594
 Alpha virt. eigenvalues --    2.73597   2.74254   2.75081   2.77206   2.78786
 Alpha virt. eigenvalues --    2.79214   2.80334   2.82451   2.82910   2.83449
 Alpha virt. eigenvalues --    2.85331   2.88212   2.88940   2.89441   2.91850
 Alpha virt. eigenvalues --    2.92573   2.93520   2.94825   2.95870   2.96907
 Alpha virt. eigenvalues --    3.01362   3.02054   3.02513   3.05051   3.05568
 Alpha virt. eigenvalues --    3.07722   3.09479   3.11153   3.12326   3.12891
 Alpha virt. eigenvalues --    3.14143   3.15190   3.16400   3.18026   3.20273
 Alpha virt. eigenvalues --    3.22616   3.27256   3.28244   3.31267   3.39502
 Alpha virt. eigenvalues --    3.45847   3.59602   3.65761   3.66944   3.67972
 Alpha virt. eigenvalues --    3.68980   3.70142   3.70371   3.70882   3.71518
 Alpha virt. eigenvalues --    3.73674   3.76929   3.78098   3.81489   3.84178
 Alpha virt. eigenvalues --    3.90450   3.91585   3.95011   3.96965   3.99339
 Alpha virt. eigenvalues --    4.01731   4.03627   4.05776   4.10264   4.16615
 Alpha virt. eigenvalues --    4.18601   4.24075   4.89057   5.00194   5.00970
 Alpha virt. eigenvalues --    5.05840   5.07699   5.09129   5.14285   5.15774
 Alpha virt. eigenvalues --    5.26401   5.32263   5.33113   5.35622   5.52541
 Alpha virt. eigenvalues --    5.53862   5.59196   5.61560   5.63674   5.81422
 Alpha virt. eigenvalues --   23.69571  23.72562  23.75781  23.76931  23.79784
 Alpha virt. eigenvalues --   23.81184  23.85776  23.86637  23.89275  23.91069
 Alpha virt. eigenvalues --   23.94909  49.84188  49.90521  49.93856  49.96030
 Alpha virt. eigenvalues --   49.98034  50.01232
          Condensed to atoms (all electrons):
               1          2          3          4          5          6
     1  C    9.221212  -3.877698   2.096115  -1.642864   0.569403  -0.210892
     2  C   -3.877698  18.699633  -8.215541  -0.406208   2.110643  -1.527689
     3  C    2.096115  -8.215541  17.117736  -5.051633   0.219191   0.253470
     4  C   -1.642864  -0.406208  -5.051633  22.929031 -13.145836   3.861275
     5  C    0.569403   2.110643   0.219191 -13.145836  23.359196  -6.276036
     6  C   -0.210892  -1.527689   0.253470   3.861275  -6.276036   8.999250
     7  O   -0.104997   0.194597  -0.226457   0.182125  -0.045030   0.208293
     8  O    0.024145   0.078144  -0.135564   0.088126  -0.028721   0.090026
     9  O   -0.183662   0.063215  -0.129957   0.001025  -0.170389   0.048227
    10  O   -0.001566  -0.027321   0.019318  -0.084813   0.003003   0.029361
    11  H    0.468460  -0.120058  -0.009143   0.015589   0.004338  -0.001651
    12  H    0.298969   0.037770   0.036039  -0.018220   0.007439  -0.002726
    13  H    0.011410   0.267511   0.056946   0.027729  -0.083486   0.042420
    14  H    0.058920  -0.139144   0.510356  -0.188903   0.093252  -0.021770
    15  H    0.003215  -0.052442  -0.022457   0.512825  -0.156398   0.047122
    16  H   -0.008830   0.002460  -0.028741   0.116933   0.273854  -0.030330
    17  H    0.010812   0.004446   0.010938  -0.011387  -0.023569   0.394172
    18  O    0.014126  -0.037059   0.051576  -0.129788   0.202344  -0.030177
    19  C   -0.016386  -0.228141   0.085132  -0.067446   0.049349  -0.029841
    20  H    0.012616   0.018221  -0.006241  -0.000742  -0.000079  -0.000217
    21  H   -0.014071   0.015958  -0.005177  -0.000206   0.000518  -0.000498
    22  H   -0.010538  -0.015839   0.005482  -0.000918   0.000303   0.000135
    23  C   -0.002207   0.027261  -0.025846  -0.095620  -0.060293  -0.104650
    24  H    0.000889   0.003901   0.002783  -0.044897   0.104413  -0.049048
    25  H   -0.000556  -0.001523  -0.003055   0.068966  -0.141021   0.040084
    26  H    0.000159   0.001419  -0.000198  -0.015232   0.049616  -0.007843
    27  C   -0.033689  -0.241035   0.184204   0.169507  -0.473131   0.109625
    28  H    0.001065  -0.008672   0.014283  -0.035301  -0.031316   0.004175
    29  H   -0.000816   0.005831  -0.013727  -0.019647   0.028314   0.000717
    30  H    0.000221   0.000263   0.003092   0.032145  -0.005775  -0.000855
    31  C   -0.285941   0.401615  -0.955560  -0.701443   0.300771  -0.075659
    32  O    0.042255  -0.075161   0.088993  -0.041703   0.028768  -0.010345
    33  C    0.142035  -0.290967   0.378985  -0.224997   0.110848  -0.028323
    34  H    0.002871  -0.014199  -0.005831   0.001121  -0.000411   0.002998
    35  H   -0.003378   0.013053  -0.026136   0.003260  -0.001256  -0.002016
    36  H   -0.000121   0.000034   0.005020  -0.000060   0.000349   0.000089
               7          8          9         10         11         12
     1  C   -0.104997   0.024145  -0.183662  -0.001566   0.468460   0.298969
     2  C    0.194597   0.078144   0.063215  -0.027321  -0.120058   0.037770
     3  C   -0.226457  -0.135564  -0.129957   0.019318  -0.009143   0.036039
     4  C    0.182125   0.088126   0.001025  -0.084813   0.015589  -0.018220
     5  C   -0.045030  -0.028721  -0.170389   0.003003   0.004338   0.007439
     6  C    0.208293   0.090026   0.048227   0.029361  -0.001651  -0.002726
     7  O    7.678105  -0.009879   0.018081   0.020362   0.020941  -0.026248
     8  O   -0.009879   7.906616   0.007196   0.000645   0.000149   0.000036
     9  O    0.018081   0.007196   8.485293   0.003008   0.005434  -0.002418
    10  O    0.020362   0.000645   0.003008   8.176664  -0.051037  -0.038950
    11  H    0.020941   0.000149   0.005434  -0.051037   0.488176  -0.041175
    12  H   -0.026248   0.000036  -0.002418  -0.038950  -0.041175   0.516898
    13  H   -0.033279  -0.001042   0.008715   0.007110  -0.001108  -0.003315
    14  H    0.004504  -0.004474  -0.049010   0.001552   0.003115  -0.000146
    15  H    0.000406  -0.032139   0.009847  -0.000133  -0.000074   0.000046
    16  H    0.009762  -0.011214  -0.000423  -0.000647   0.000007  -0.000000
    17  H   -0.040267  -0.000484  -0.000563  -0.000022   0.000003  -0.000052
    18  O    0.005450   0.019384  -0.002721  -0.000354  -0.000021  -0.000043
    19  C   -0.010560   0.000690  -0.011833   0.081977   0.003279   0.002693
    20  H   -0.000624   0.000000  -0.000548  -0.061628  -0.000433  -0.000235
    21  H   -0.001159   0.000000  -0.000491  -0.043601  -0.004801   0.011190
    22  H    0.000582   0.000001   0.001964  -0.042180   0.012884  -0.002975
    23  C    0.004556  -0.006886  -0.002701  -0.000284  -0.000005  -0.000026
    24  H   -0.000019   0.000177  -0.000150   0.000018   0.000000  -0.000000
    25  H    0.000138   0.000410   0.000125  -0.000006   0.000000  -0.000000
    26  H    0.000033   0.000125   0.000028  -0.000000  -0.000000   0.000000
    27  C   -0.000746   0.110078  -0.003797   0.000340  -0.000242  -0.000039
    28  H   -0.000073  -0.031775   0.001170   0.000081   0.000033   0.000001
    29  H    0.000034  -0.042468   0.000949  -0.000001  -0.000006  -0.000000
    30  H    0.000023  -0.056948  -0.000523  -0.000002  -0.000000   0.000000
    31  C   -0.043585   0.019513   0.191383   0.105284  -0.005711   0.007930
    32  O   -0.004252   0.000465  -0.204515   0.000452  -0.006814   0.000652
    33  C   -0.005561   0.000803  -0.426890   0.008612  -0.003324   0.001764
    34  H    0.000367   0.000101   0.003859   0.001489   0.000081   0.000006
    35  H    0.000008  -0.000253  -0.007391   0.000107  -0.000011  -0.000000
    36  H    0.000008  -0.000017   0.016576  -0.000019   0.000007   0.000001
              13         14         15         16         17         18
     1  C    0.011410   0.058920   0.003215  -0.008830   0.010812   0.014126
     2  C    0.267511  -0.139144  -0.052442   0.002460   0.004446  -0.037059
     3  C    0.056946   0.510356  -0.022457  -0.028741   0.010938   0.051576
     4  C    0.027729  -0.188903   0.512825   0.116933  -0.011387  -0.129788
     5  C   -0.083486   0.093252  -0.156398   0.273854  -0.023569   0.202344
     6  C    0.042420  -0.021770   0.047122  -0.030330   0.394172  -0.030177
     7  O   -0.033279   0.004504   0.000406   0.009762  -0.040267   0.005450
     8  O   -0.001042  -0.004474  -0.032139  -0.011214  -0.000484   0.019384
     9  O    0.008715  -0.049010   0.009847  -0.000423  -0.000563  -0.002721
    10  O    0.007110   0.001552  -0.000133  -0.000647  -0.000022  -0.000354
    11  H   -0.001108   0.003115  -0.000074   0.000007   0.000003  -0.000021
    12  H   -0.003315  -0.000146   0.000046  -0.000000  -0.000052  -0.000043
    13  H    0.411268  -0.000068   0.002842   0.000019  -0.000252   0.000654
    14  H   -0.000068   0.405183  -0.009105  -0.000803   0.000038  -0.000110
    15  H    0.002842  -0.009105   0.453269   0.003310  -0.000172  -0.007243
[...]
 ,-0.00014488,-0.00032475,-0.00006049,-0.00008018,-0.00042366,0.0000747
 9,-0.00018275,-0.00008344,0.16479437,0.16805581,0.96734931,-0.00154449
 ,0.00009919,-0.00099470,0.00033905,-0.00295575,0.00070869,-0.00061648,
 -0.00162808,0.00441173,0.00272403,0.00173133,0.00121200,-0.00056056,-0
 .00046945,0.00010343,0.00000347,-0.00087773,-0.00020759,0.00025799,0.0
 0141427,0.00023060,-0.00047106,-0.00051233,0.00016918,0.00617871,0.025
 46357,0.04578154,0.00218029,-0.00120047,0.00010996,-0.00031894,0.00045
 850,0.00033503,0.00042162,0.00018944,0.00026338,0.00007872,-0.00002063
 ,0.00013529,-0.00073608,0.00152684,0.00240058,0.00014055,-0.00000577,-
 0.00011136,-0.00009941,-0.00009720,-0.00045077,-0.00013401,0.00001781,
 -0.00005470,-0.00060068,0.00047518,0.00120040,-0.00070581,0.00033009,0
 .00041422,0.00020387,0.00022832,0.00003239,0.00020286,-0.00018649,-0.0
 0009843,0.00010489,0.00017018,-0.00050149,-0.00001070,0.00035751,-0.00
 068139,0.00004935,-0.00000353,0.00007679,0.00002662,-0.00004738,-0.000
 04008,-0.00001600,-0.00002840,0.00007861,0.00043134,-0.00008536,-0.000
 21665,0.00004912,0.00024827,0.00006057,-0.00006225,0.00002850,0.000020
 18,-0.00012389,0.00000874,0.00010575,-0.11861118,-0.00675475,-0.078314
 11,0.10570695,-0.00022944,-0.00100472,0.00061788,0.00023478,0.00092085
 ,0.00211059,-0.00738560,0.00014008,-0.00499649,-0.00111512,-0.00123093
 ,0.00007970,-0.00015923,0.00016253,0.00018599,-0.00016837,0.00039568,0
 .00046741,0.00009192,0.00020864,-0.00055066,0.00100071,0.00153707,0.00
 022187,0.02586064,-0.00405316,-0.05070493,-0.00058689,-0.00347977,0.00
 061334,0.00022636,-0.00131473,-0.00060875,-0.00001243,-0.00057180,-0.0
 0042328,0.00001015,-0.00060207,0.00003182,0.00188034,-0.00224616,-0.00
 008410,0.00024057,0.00005285,-0.00016521,-0.00008484,0.00023009,0.0005
 5775,-0.00001447,0.00004870,-0.00000210,0.00068868,-0.00013411,-0.0008
 0859,0.00169922,0.00014397,-0.00062860,-0.00014560,-0.00008968,-0.0000
 3633,-0.00020234,-0.00006378,0.00015258,0.00007908,0.00010631,0.000070
 82,-0.00004473,-0.00027825,0.00053646,-0.00003144,0.00003916,-0.000029
 83,-0.00003136,0.00002918,-0.00003539,0.00002326,0.00001343,-0.0000532
 4,-0.00028708,-0.00116927,-0.00110789,0.00014839,0.00004664,0.00028886
 ,-0.00005030,0.00013936,0.00021966,0.00004726,0.00009404,0.00001865,-0
 .01205859,-0.13181346,-0.17741588,-0.01392797,0.12156303,0.00016205,-0
 .00061632,-0.00374195,0.00425773,-0.00156987,-0.00116902,-0.01727198,0
 .00519506,-0.01230613,0.00121037,0.00028789,0.00278705,-0.00108566,-0.
 00025326,0.00062552,0.00019379,0.00237247,-0.00120478,-0.00130813,0.00
 057758,0.00242018,0.00129035,0.00119652,0.00064536,0.05781387,-0.05894
 920,-0.05920300,-0.00096581,0.00150136,0.00214977,0.00014944,-0.000588
 45,0.00209354,-0.00035216,0.00091605,0.00105565,0.00007454,-0.00113213
 ,0.00040338,0.00469453,-0.00037839,0.00126173,0.00116856,0.00000164,-0
 .00074017,-0.00059266,0.00032892,0.00108320,-0.00008988,-0.00001716,0.
 00014449,0.00109998,-0.00018832,-0.00052493,0.00055931,-0.00131823,-0.
 00123359,0.00009286,0.00027511,0.00009995,-0.00020954,0.00028229,0.000
 35683,-0.00078302,-0.00017253,0.00077131,-0.00014572,-0.00024480,0.000
 46655,-0.00002504,0.00009597,0.00000891,-0.00008915,0.00001306,-0.0000
 2026,0.00004640,-0.00000849,-0.00002887,-0.00053479,-0.00155786,-0.001
 35083,0.00002823,0.00008168,0.00013758,0.00006442,0.00007350,0.0002350
 9,-0.00002272,0.00010681,0.00003667,-0.09740595,-0.16521307,-0.7125065
 9,0.06414028,0.23273155,0.81654976,-0.00058386,0.00002639,-0.00015649,
 -0.00103560,-0.00007171,-0.00053717,0.00209910,0.00163445,0.00350171,-
 0.00034762,0.00070167,-0.00084494,0.00010865,-0.00015947,-0.00027833,0
 .00010314,-0.00020407,-0.00018916,0.00000688,0.00005611,0.00014738,-0.
 00012384,-0.00047682,0.00012883,-0.03685765,0.01822665,-0.01593076,0.0
 0066040,-0.00057547,0.00005329,0.00004417,-0.00000015,0.00013730,0.000
 06812,0.00006917,0.00006380,0.00005103,0.00034206,-0.00012210,0.000029
 98,-0.00002272,-0.00025329,-0.00022499,-0.00002513,0.00023983,0.000034
 73,-0.00000654,-0.00009708,0.00000010,-0.00000981,-0.00000959,-0.00020
 131,0.00003317,0.00039300,-0.00023605,0.00004656,-0.00000952,0.0000446
 4,0.00011189,0.00003733,0.00006599,-0.00001137,-0.00000939,0.00000207,
 0.00000973,-0.00009420,0.00000221,0.00011272,-0.00024020,0.00001994,-0
 .00000111,0.00002194,0.00000335,-0.00001514,-0.00000477,-0.00000862,-0
 .00000943,0.00002183,0.00014287,0.00019357,0.00015702,-0.00003046,0.00
 001577,-0.00002108,0.00000108,-0.00000568,-0.00003099,-0.00002448,-0.0
 0002020,0.00000555,-0.17219081,0.01859090,-0.06563423,0.00871960,0.005
 78166,-0.01129223,0.54640269,-0.00008658,-0.00021679,-0.00035698,-0.00
 022124,0.00016751,-0.00050678,0.00325945,0.00182379,-0.00298496,0.0010
 0229,-0.00044682,0.00139005,-0.00006216,0.00004619,0.00025028,0.000155
 51,0.00019203,-0.00016798,-0.00014997,-0.00013083,0.00020368,-0.000025
 01,0.00023441,0.00002841,0.02641567,-0.00083568,0.00878571,0.00016893,
 -0.00005987,0.00018160,-0.00001042,-0.00014446,0.00027650,-0.00007879,
 0.00011365,0.00010615,0.00000049,0.00006018,-0.00002490,0.00055405,-0.
 00017192,-0.00025752,0.00037952,-0.00003471,-0.00036452,-0.00008039,0.
 00007880,0.00002115,0.00001172,-0.00001966,0.00002329,0.00004388,-0.00
 004899,-0.00012817,-0.00000549,-0.00000932,0.00012309,-0.00005206,0.00
 000219,0.00008404,-0.00002330,-0.00002146,-0.00004585,-0.00008509,0.00
 001666,-0.00007329,-0.00001635,-0.00003304,0.00005088,-0.00000227,0.00
 001487,-0.00000504,-0.00001687,-0.00000026,0.00000711,0.00000622,-0.00
 000305,-0.00000207,-0.00007858,-0.00016563,-0.00013032,0.00000961,-0.0
 0002525,0.00004597,-0.00000143,0.00000541,0.00002566,0.00001685,0.0000
 1167,-0.00001123,0.01855391,-0.09322642,0.02192812,-0.00198285,0.02294
 139,-0.01633613,-0.02322105,0.56170656,0.00013076,-0.00001962,-0.00018
 942,0.00076233,0.00007923,-0.00023390,0.00409290,-0.00313872,-0.000380
 53,0.00061973,-0.00047628,0.00086066,0.00000058,-0.00003431,0.00003447
 ,0.00004999,0.00011929,-0.00023998,-0.00015185,0.00017514,0.00036072,-
 0.00012147,0.00027270,0.00001885,0.00994394,-0.00453284,0.01225603,-0.
 00033213,0.00025179,-0.00017152,0.00001083,-0.00020908,0.00022294,-0.0
 0013269,0.00012386,0.00005141,-0.00000743,-0.00017541,0.00009251,0.000
 57183,-0.00012004,-0.00012939,0.00026555,0.00001533,-0.00022195,-0.000
 04266,-0.00004558,-0.00003542,0.00000366,-0.00000819,0.00001477,-0.000
 05554,0.00000447,0.00010268,-0.00018447,-0.00019198,0.00019623,-0.0000
 9878,-0.00008975,-0.00001732,-0.00004932,0.00005794,-0.00003810,-0.000
 05100,-0.00004669,0.00005205,-0.00002076,0.00000840,-0.00008100,0.0000
 0912,0.00000645,0.00000651,0.00000423,-0.00000323,-0.00000159,-0.00000
 090,0.00000123,0.00000709,0.00004310,-0.00011646,-0.00015747,0.0000220
 4,0.00002707,0.00003673,-0.00001930,0.00000867,0.00001731,-0.00000107,
 0.00001552,0.00001781,-0.06463422,0.02076045,-0.12822156,-0.03454838,-
 0.00468362,-0.03654981,-0.04838947,0.02613726,0.55468535,-0.00045506,-
 0.00016394,-0.00015518,-0.00019403,-0.00007953,-0.00020491,0.00047437,
 0.00077608,-0.00003337,0.00015098,-0.00012118,0.00008365,-0.00012088,-
 0.00000551,-0.00000540,-0.00007140,0.00006350,-0.00004225,0.00000011,0
 .00004559,0.00006599,-0.00000280,0.00009060,0.00003628,-0.00026281,0.0
 0235125,0.00022495,0.00012630,-0.00028108,0.00065405,0.00005431,-0.000
 02386,0.00012920,0.00009325,0.00001219,0.00009322,0.00000315,0.0000589
 7,-0.00003216,0.00025015,-0.00007895,-0.00000763,0.00002610,0.00000917
 ,-0.00002426,-0.00009158,-0.00002836,0.00002854,-0.00001202,0.00001798
 ,0.00000757,0.00008676,0.00000430,-0.00000694,0.00061042,0.00012311,-0
 .00020567,0.00002021,-0.00007414,-0.00002158,-0.00010282,-0.00002105,0
 .00003216,-0.00005438,0.00001103,0.00007242,-0.00002360,-0.00001472,0.
 00000638,0.00000056,0.00001142,0.00000934,-0.00000375,-0.00000138,-0.0
 0000683,0.00000624,-0.00000030,0.00000303,0.00000299,-0.00004577,-0.00
 005288,0.00000623,0.00000782,0.00002304,-0.00000438,0.00000603,0.00001
 044,0.00000217,0.00000538,0.00000196,-0.00946736,-0.02748751,-0.004927
 25,-0.00110061,0.00329642,-0.00278441,-0.08769896,-0.09168997,-0.03185
 995,0.09101220,0.00024013,-0.00002913,0.00002911,0.00006422,-0.0000325
 9,0.00007398,-0.00063016,0.00029884,-0.00016804,-0.00005775,-0.0000249
 7,-0.00000777,-0.00001347,-0.00001367,0.00001291,0.00004586,0.00007347
 ,-0.00004335,-0.00004315,-0.00003407,0.00003374,0.00002606,0.00003959,
 0.00000213,0.00109262,-0.00065618,0.00035637,-0.00010375,-0.00000496,-
 0.00006193,-0.00006040,0.00002001,-0.00006544,0.00000587,-0.00003078,-
 0.00004827,0.00000110,-0.00002247,0.00001882,0.00003617,-0.00001956,0.
 00010828,-0.00000155,0.00000446,0.00000154,-0.00003554,0.00002083,0.00
 000530,0.00000189,-0.00000155,-0.00000422,0.00002037,-0.00000621,-0.00
 001228,0.00000560,-0.00000039,0.00015664,-0.00007561,0.00000611,0.0001
 0184,0.00000394,-0.00000926,-0.00004174,-0.00002451,-0.00000136,-0.000
 10072,-0.00000599,-0.00001045,-0.00000331,0.00000065,0.00000539,0.0000
 0118,-0.00000160,-0.00000056,-0.00000007,0.00000168,0.00000047,0.00000
 014,-0.00001334,-0.00002709,-0.00001397,0.00000366,-0.00000858,0.00000
 983,-0.00000062,0.00000748,0.00000363,0.00001122,0.00000040,-0.0000062
 5,0.00259625,0.00683003,-0.00096707,-0.00023121,-0.00091334,0.00299973
 ,-0.09178948,-0.25490198,-0.07187685,0.10149002,0.27437422,-0.00067996
 ,-0.00019259,-0.00034555,-0.00013255,-0.00001255,0.00008343,0.00012633
 ,0.00045542,-0.00022941,0.00006027,0.00003013,0.00012837,-0.00000607,0
 .00005817,0.00004551,-0.00007821,-0.00012831,0.00025832,0.00010745,0.0
 0002191,-0.00022372,0.00002326,0.00001269,-0.00004225,0.00154701,0.000
 43260,0.00035965,0.00067819,-0.00034282,0.00039274,0.00005206,0.000009
 36,0.00013620,0.00011959,0.00001320,0.00014185,0.00003235,0.00000609,-
 0.00003300,0.00020246,-0.00008591,-0.00006382,0.00001320,-0.00001701,-
 0.00003425,0.00006407,0.00000640,0.00000556,0.00000397,-0.00000423,0.0
 0000042,-0.00001487,0.00001325,-0.00007550,-0.00006571,0.00007365,-0.0
 0035539,0.00019010,0.00032575,0.00002447,0.00014297,-0.00007883,0.0001
 0162,-0.00004334,-0.00001173,-0.00006791,0.00002531,-0.00000363,0.0000
 7354,-0.00000817,-0.00001185,-0.00001277,0.00000267,0.00000439,-0.0000
 0089,-0.00000352,0.00000151,-0.00000841,-0.00001294,-0.00000837,-0.000
 01125,0.00000134,-0.00000208,-0.00000527,-0.00000006,-0.00000330,0.000
 00244,-0.00000568,0.00000218,0.00000317,-0.00806680,-0.02179595,-0.008
 92268,-0.00227168,0.00415587,-0.00317969,-0.03218618,-0.07306085,-0.06
 210234,0.03632496,0.07748795,0.06947499,-0.00001714,-0.00006828,-0.000
 01789,0.00014038,-0.00007124,0.00004133,0.00013202,-0.00046664,0.00039
 216,-0.00001232,0.00018643,-0.00019281,-0.00004186,-0.00005725,0.00000
 149,0.00004604,0.00006350,-0.00007514,-0.00003730,0.00004231,0.0000810
 5,0.00015938,-0.00010731,0.00010489,-0.00176280,-0.00061125,0.00097959
 ,0.00011167,0.00010621,0.00000892,-0.00000059,-0.00003018,0.00003638,0
 .00000589,0.00001193,0.00001640,0.00000430,-0.00002213,0.00000713,0.00
 013316,-0.00006234,-0.00003725,-0.00002219,-0.00001177,0.00004452,-0.0
 0001918,0.00006627,0.00000456,-0.00000289,-0.00000142,0.00000798,0.000
 01981,-0.00001370,0.00001023,-0.00020545,-0.00006399,0.00001309,0.0000
 4937,0.00010042,0.00002593,0.00006565,-0.00001268,0.00000966,-0.000025
 40,-0.00000161,-0.00005236,0.00000535,0.00002108,-0.00000645,0.0000002
 6,0.00000813,0.00000548,-0.00002025,-0.00000390,0.00000075,0.00000368,
 -0.00000890,0.00000442,-0.00004404,-0.00007015,-0.00005591,-0.00000331
 ,0.00002327,-0.00002252,0.00002134,-0.00001264,0.00001353,-0.00003199,
 -0.00000376,0.00000704,0.01374097,0.01581508,-0.02154723,-0.00501703,-
 0.00306570,-0.00276459,-0.07508704,-0.03969879,0.07406508,-0.00445665,
 -0.00515890,0.01109359,0.07793218,-0.00019720,-0.00007106,-0.00004643,
 -0.00014361,0.00005481,0.00008608,0.00018284,0.00004762,-0.00023436,0.
 00004524,0.00006005,0.00005827,0.00010225,0.00005574,0.00001346,-0.000
 07000,-0.00015834,0.00019184,0.00008777,0.00000030,-0.00017933,-0.0000
 5697,-0.00012549,-0.00007439,0.00111063,0.00010027,-0.00059538,0.00026
 717,-0.00015184,0.00017409,0.00002418,0.00001423,0.00000006,0.00006131
 ,-0.00001282,0.00003101,0.00001521,0.00001043,-0.00001430,-0.00007834,
 0.00002551,-0.00004384,-0.00000377,-0.00001223,-0.00001518,0.00012929,
 -0.00005621,-0.00001506,0.00000922,-0.00000913,-0.00000217,-0.00008971
 ,0.00001138,-0.00001956,0.00004948,0.00004043,-0.00015153,0.00005807,0
 .00007131,0.00000151,0.00002674,-0.00001352,0.00003125,0.00000267,0.00
 000083,-0.00000442,0.00003406,0.00001727,0.00003586,-0.00000591,-0.000
 02358,-0.00001611,0.00001302,0.00000562,0.00000377,-0.00000919,0.00000
 450,-0.00000876,0.00002830,0.00010545,0.00007329,-0.00000486,0.0000016
 4,-0.00003259,-0.00000216,-0.00001929,-0.00001649,-0.00001694,-0.00000
 266,0.00000730,-0.00404677,-0.00390079,0.00219890,-0.00044145,-0.00003
 884,-0.00067897,-0.03915433,-0.10514130,0.11044050,-0.00791958,-0.0127
 8630,0.02364167,0.04579681,0.11195752,0.00008260,-0.00002383,-0.000007
 82,0.00026336,-0.00008864,0.00018268,-0.00089911,-0.00035980,0.0000206
 5,-0.00005412,0.00013033,-0.00005272,-0.00003436,0.00000767,0.00004565
 ,0.00000384,0.00002321,0.00001946,-0.00001248,0.00002386,-0.00000415,0
 .00007537,-0.00008095,-0.00001271,0.00096593,-0.00128848,0.00130281,-0
 .00006501,0.00003592,0.00003691,-0.00000191,-0.00002112,0.00000786,-0.
 00000351,-0.00000135,0.00000705,-0.00000204,-0.00008197,0.00002911,0.0
 0012122,0.00000178,0.00001641,0.00000564,-0.00001052,0.00001007,-0.000
 00223,0.00002256,0.00003835,-0.00000065,-0.00000323,0.00000503,0.00001
 707,0.00000356,-0.00006523,0.00001672,-0.00004090,-0.00006263,0.000013
 75,0.00001218,-0.00000244,0.00000348,0.00001005,0.00002035,-0.00000353
 ,-0.00000728,0.00003573,0.00001143,-0.00000790,0.00005801,-0.00000626,
 -0.00001075,-0.00000796,0.00000123,0.00000441,0.00000702,-0.00000119,0
 .00000079,-0.00000612,-0.00003918,-0.00000387,0.00001150,-0.00000674,0
 .00001479,-0.00004257,0.00001671,-0.00001779,-0.00000390,-0.00002136,0
 .00000074,0.00001169,0.00882848,0.00895317,-0.02014709,-0.00464017,-0.
 00054472,-0.00034299,0.07425521,0.11130011,-0.22692634,-0.00318697,-0.
 00556508,0.00900360,-0.07795542,-0.11936442,0.24641233,-0.00013720,0.0
 0001112,0.00006280,-0.00034306,-0.00006452,-0.00008821,0.00003920,0.00
 058729,0.00083542,-0.00013681,0.00018584,-0.00040923,0.00001855,-0.000
 02894,-0.00007986,-0.00002552,-0.00006735,-0.00001951,0.00003560,0.000
 03022,-0.00000692,-0.00005872,-0.00016917,0.00002370,-0.00485801,0.001
 88619,-0.00394336,0.00013607,-0.00003478,0.00003026,0.00001046,0.00002
 363,-0.00001258,0.00004161,-0.00001414,-0.00000587,0.00000393,0.000110
 93,-0.00003438,-0.00013224,0.00004589,0.00000694,-0.00010503,0.0000014
 5,0.00010428,-0.00000276,-0.00002142,-0.00002675,-0.00000733,0.0000051
 6,-0.00000485,-0.00003073,0.00001197,0.00008828,0.00000359,0.00006347,
 0.00002054,0.00003066,-0.00000774,-0.00003122,0.00000930,-0.00001687,-
 0.00000961,0.00002152,0.00000383,-0.00002004,-0.00000139,0.00002440,-0
 .00005181,0.00000348,-0.00000063,0.00000701,0.00000312,-0.00000274,-0.
 00000178,-0.00000094,-0.00000056,0.00000545,0.00004555,0.00009809,0.00
 008264,-0.00000596,0.00001215,-0.00001995,0.00000089,-0.00000627,-0.00
 001514,-0.00001020,-0.00000619,0.00000562,-0.01727601,0.01362899,0.016
 47673,0.00291015,-0.00170796,0.00067675,-0.18395948,0.10701055,0.09010
 574,0.01119659,-0.00740028,-0.00723539,-0.00576403,0.00419655,0.002254
 20,0.19834514,0.00000917,-0.00004192,0.00003853,-0.00009023,0.00003180
 ,-0.00012037,-0.00000992,0.00080011,-0.00051553,0.00013045,-0.00009070
 ,0.00014975,-0.00002368,0.00000802,0.00001732,-0.00001793,0.00004529,-
 0.00003222,-0.00001620,-0.00001869,0.00004323,-0.00003541,0.00000746,-
 0.00001064,0.00124748,0.00075789,0.00075455,-0.00026007,-0.00000602,0.
 00020310,0.00001973,-0.00000479,0.00000831,0.00000869,-0.00000165,0.00
 000595,-0.00000642,0.00002005,-0.00001027,0.00010798,-0.00002476,0.000
 07065,0.00003945,0.00000230,-0.00004189,-0.00001771,-0.00002577,0.0000
 1400,-0.00000028,0.00000217,0.00000457,0.00001829,-0.00000240,-0.00002
 339,0.00036343,-0.00000323,-0.00018937,-0.00001611,-0.00012099,-0.0000
 9633,-0.00010716,0.00005267,0.00003141,0.00003457,-0.00000217,0.000189
 62,-0.00000351,-0.00001018,0.00001568,-0.00000132,-0.00000168,-0.00000
 194,0.00000412,0.00000167,0.00000104,0.00000036,0.00000259,-0.00000216
 ,0.00000324,0.00001393,0.00001052,0.00000219,0.00000401,-0.00000561,-0
 .00000159,-0.00000393,-0.00000331,0.00000025,0.00000314,0.00000327,0.0
 0143093,-0.00530791,-0.00343617,-0.00129092,0.00019108,0.00018600,0.10
 982720,-0.13177790,-0.07273668,0.01965596,-0.01214584,-0.01099216,-0.0
 1261692,0.00993850,0.00697746,-0.11838813,0.13770787,-0.00008367,0.000
 01436,0.00001968,-0.00008110,-0.00012398,0.00001058,-0.00095716,0.0002
 7783,0.00086736,-0.00022595,0.00023469,-0.00041789,-0.00004092,-0.0000
 4541,-0.00006185,-0.00000325,-0.00000094,-0.00005370,-0.00000036,0.000
 03654,0.00002409,0.00003667,-0.00008741,0.00005398,-0.00502039,0.00132
 589,-0.00234336,0.00017103,-0.00002869,-0.00002558,-0.00000302,0.00001
 338,0.00000404,0.00002087,-0.00000058,-0.00000249,-0.00000246,0.000045
 31,-0.00001880,-0.00001754,0.00000326,0.00002923,-0.00011127,0.0000063
 9,0.00010989,-0.00004966,0.00002634,-0.00000626,-0.00000812,0.00000829
 ,-0.00000310,0.00001861,0.00000582,0.00006626,-0.00007223,0.00006128,0
 .00010131,0.00002098,0.00000496,-0.00000046,0.00002298,-0.00002688,-0.
 00002366,-0.00001427,0.00000489,-0.00006446,-0.00000967,0.00001515,-0.
 00004141,0.00000338,0.00000995,0.00001191,-0.00000786,-0.00000452,-0.0
 0000413,0.00000340,-0.00000392,0.00000717,0.00000985,0.00000852,0.0000
 1251,-0.00000375,0.00000797,-0.00000154,0.00000431,0.00000410,0.000000
 74,-0.00000573,-0.00000572,-0.00000074,-0.01463473,0.01330602,0.010996
 33,0.00114093,-0.00018120,0.00077011,0.09716715,-0.07651246,-0.1133364
 7,0.00575051,-0.00241674,-0.00452177,0.01575236,-0.01547557,-0.0095976
 1,-0.09876991,0.07949310,0.11744010\\0.00001491,0.00000833,0.00000964,
 -0.00000355,-0.00000866,-0.00000119,0.00000908,0.00000102,-0.00001068,
 0.00000156,0.00001956,0.00001718,-0.00003499,-0.00003733,0.00001511,0.
 00001315,0.00001513,-0.00003738,0.00000240,0.00001221,0.00002176,-0.00
 000846,-0.00000898,-0.00000988,-0.00000679,0.00000175,0.00001342,0.000
 00222,-0.00000237,-0.00000185,-0.00000005,0.00000040,-0.00000143,0.000
 00496,0.00000341,0.00000048,0.00000240,0.00000734,0.00000250,-0.000005
 68,0.00000201,-0.00000270,-0.00000154,0.00000627,-0.00000928,0.0000061
 7,0.00000503,0.00000304,0.00000583,-0.00000203,0.00001252,0.00001363,-
 0.00001241,0.00000576,-0.00000519,-0.00000309,0.00001177,0.00000431,-0
 .00000299,0.00000695,0.00000579,0.00000100,0.00000318,0.00000310,-0.00
 000190,-0.00000005,0.00000223,0.00001038,-0.00002071,-0.00000016,-0.00
 000488,0.00000359,-0.00000223,-0.00000798,-0.00000049,-0.00000395,-0.0
 0000224,-0.00000261,0.00000704,0.00001844,0.00001019,-0.00000332,0.000
 00043,-0.00001031,-0.00000627,0.00000550,-0.00000965,-0.00000617,-0.00
 000033,-0.00000687,0.00000359,-0.00000763,0.00001007,-0.00000203,0.000
 00472,-0.00001818,-0.00000821,-0.00001005,0.00000367,0.00000287,-0.000
 00273,-0.00000351,-0.00000416,-0.00000115,-0.00000037,-0.00000250,-0.0
 0000623,-0.00000372\\\@


 BUT 'GLORY' DOESN'T MEAN 'A NICE KNOCK DOWN ARGUMENT', ALICE OBJECTED.
 WHEN I USE A WORD, HUMPTY DUMPTY SAID, IN A RATHER SCORNFUL TONE,
 IT MEANS JUST WHAT I CHOOSE IT TO MEAN....
 NEITHER MORE NOR LESS....
 THE QUESTION IS, SAID ALICE,
 WHETHER YOU CAN MAKE WORDS MEAN SO MANY DIFFERENT THINGS...
 THE QUESTION IS, SAID HUMPTY DUMPTY,
 WHICH IS TO BE MASTER....
 THAT IS ALL.....

 ALICE THROUGH THE LOOKING GLASS
 Job cpu time:       0 days  2 hours 29 minutes  7.0 seconds.
 File lengths (MBytes):  RWF=    766 Int=      0 D2E=      0 Chk=     19 Scr=      1
 Normal termination of Gaussian 09 at Tue Oct 24 14:48:35 2017.
