 Entering Gaussian System, Link 0=g09
 Initial command:
 /share/apps//g09/l1.exe "/scratch/Gau-25418.inp" -scrdir="/scratch/"
 Entering Link 1 = /share/apps//g09/l1.exe PID=     25419.
  
 Copyright (c) 1988,1990,1992,1993,1995,1998,2003,2009,2013,
            Gaussian, Inc.  All Rights Reserved.
  
 This is part of the Gaussian(R) 09 program.  It is based on
 the Gaussian(R) 03 system (copyright 2003, Gaussian, Inc.),
 the Gaussian(R) 98 system (copyright 1998, Gaussian, Inc.),
 the Gaussian(R) 94 system (copyright 1995, Gaussian, Inc.),
 the Gaussian 92(TM) system (copyright 1992, Gaussian, Inc.),
 the Gaussian 90(TM) system (copyright 1990, Gaussian, Inc.),
 the Gaussian 88(TM) system (copyright 1988, Gaussian, Inc.),
 the Gaussian 86(TM) system (copyright 1986, Carnegie Mellon
 University), and the Gaussian 82(TM) system (copyright 1983,
 Carnegie Mellon University). Gaussian is a federally registered
 trademark of Gaussian, Inc.
  
 This software contains proprietary and confidential information,
 including trade secrets, belonging to Gaussian, Inc.
  
 This software is provided under written license and may be
 used, copied, transmitted, or stored only in accord with that
 written license.
  
 The following legend is applicable only to US Government
 contracts under FAR:
  
                    RESTRICTED RIGHTS LEGEND
  
 Use, reproduction and disclosure by the US Government is
 subject to restrictions as set forth in subparagraphs (a)
 and (c) of the Commercial Computer Software - Restricted
 Rights clause in FAR 52.227-19.
  
 Gaussian, Inc.
 340 Quinnipiac St., Bldg. 40, Wallingford CT 06492
  
  
 ---------------------------------------------------------------
 Warning -- This program may not be used in any manner that
 competes with the business of Gaussian, Inc. or will provide
 assistance to any competitor of Gaussian, Inc.  The licensee
 of this program is prohibited from giving any competitor of
 Gaussian, Inc. access to this program.  By using this program,
 the user acknowledges that Gaussian, Inc. is engaged in the
 business of creating and licensing software in the field of
 computational chemistry and represents and warrants to the
 licensee that it is not a competitor of Gaussian, Inc. and that
 it will not use this program in any manner prohibited above.
 ---------------------------------------------------------------
  

 Cite this work as:
 Gaussian 09, Revision D.01,
 M. J. Frisch, G. W. Trucks, H. B. Schlegel, G. E. Scuseria, 
 M. A. Robb, J. R. Cheeseman, G. Scalmani, V. Barone, B. Mennucci, 
 G. A. Petersson, H. Nakatsuji, M. Caricato, X. Li, H. P. Hratchian, 
 A. F. Izmaylov, J. Bloino, G. Zheng, J. L. Sonnenberg, M. Hada, 
 M. Ehara, K. Toyota, R. Fukuda, J. Hasegawa, M. Ishida, T. Nakajima, 
 Y. Honda, O. Kitao, H. Nakai, T. Vreven, J. A. Montgomery, Jr., 
 J. E. Peralta, F. Ogliaro, M. Bearpark, J. J. Heyd, E. Brothers, 
 K. N. Kudin, V. N. Staroverov, T. Keith, R. Kobayashi, J. Normand, 
 K. Raghavachari, A. Rendell, J. C. Burant, S. S. Iyengar, J. Tomasi, 
 M. Cossi, N. Rega, J. M. Millam, M. Klene, J. E. Knox, J. B. Cross, 
 V. Bakken, C. Adamo, J. Jaramillo, R. Gomperts, R. E. Stratmann, 
 O. Yazyev, A. J. Austin, R. Cammi, C. Pomelli, J. W. Ochterski, 
 R. L. Martin, K. Morokuma, V. G. Zakrzewski, G. A. Voth, 
 P. Salvador, J. J. Dannenberg, S. Dapprich, A. D. Daniels, 
 O. Farkas, J. B. Foresman, J. V. Ortiz, J. Cioslowski, 
 and D. J. Fox, Gaussian, Inc., Wallingford CT, 2013.
 
 ******************************************
 Gaussian 09:  EM64L-G09RevD.01 24-Apr-2013
                10-Jan-2017 
 ******************************************
 %nproc=20
 Will use up to   20 processors via shared memory.
 %mem=100GB
 %chk=Ac-4_cGalMe.chk
 -------------------------------------------------------------------
 #P PBE1PBE/6-311+G(d,p) opt optcyc=999 freq EmpiricalDispersion=GD3
 -------------------------------------------------------------------
 1/6=999,14=-1,18=20,19=15,26=3,38=1/1,3;
 2/9=110,12=2,17=6,18=5,40=1/2;
 3/5=4,6=6,7=111,11=2,16=1,25=1,30=1,71=1,74=-13,124=31/1,2,3;
 4//1;
 5/5=2,38=5/2;
 6/7=2,8=2,9=2,10=2,28=1/1;
 7//1,2,3,16;
 1/6=999,14=-1,18=20,19=15,26=3/3(2);
 2/9=110/2;
 99//99;
 2/9=110/2;
 3/5=4,6=6,7=111,11=2,16=1,25=1,30=1,71=1,74=-13,124=31/1,2,3;
 4/5=5,16=3,69=1/1;
 5/5=2,38=5/2;
 7//1,2,3,16;
 1/6=999,14=-1,18=20,19=15,26=3/3(-5);
 2/9=110/2;
 6/7=2,8=2,9=2,10=2,19=2,28=1/1;
 99/9=1/99;
 Leave Link    1 at Tue Jan 10 09:25:16 2017, MaxMem= 13421772800 cpu:         1.7
 (Enter /share/apps//g09/l101.exe)
 -------
 disacch
 -------
 Symbolic Z-matrix:
 Charge =  1 Multiplicity = 1
 C                    -1.31625  -0.13104   2.56231 
 C                     0.15486  -0.4421    2.90441 
 C                     1.26892   0.4101    2.2589 
 C                     0.99827   0.61895   0.76003 
 C                     0.6462   -0.75098   0.10762 
 C                    -0.14778  -1.67119   1.04798 
 O                     0.30927  -1.78452   2.31782 
 O                    -0.0547    1.55974   0.61658 
 O                     1.62549   1.66282   2.86942 
 O                    -1.57735  -0.92244   1.29307 
 H                    -1.51877   0.90502   2.29717 
 H                    -1.99481  -0.51278   3.33144 
 H                     0.2985   -0.56525   3.98106 
 H                     2.17828  -0.20357   2.34999 
 H                     1.92251   0.97915   0.27584 
 H                     0.05882  -0.56646  -0.80849 
 H                    -0.38254  -2.65525   0.62218 
 O                     1.84479  -1.4613   -0.15716 
 C                    -2.72713  -1.84272   1.38252 
 H                    -2.84342  -2.28631   0.38918 
 H                    -2.54147  -2.60148   2.15295 
 H                    -3.60025  -1.22875   1.62335 
 C                     1.8861   -2.11675  -1.43715 
 H                     1.11084  -2.89542  -1.52824 
 H                     1.77371  -1.38656  -2.25456 
 H                     2.87164  -2.58927  -1.50189 
 C                     0.03431   2.35105  -0.57679 
 H                     0.98103   2.9142   -0.60048 
 H                    -0.04661   1.73595  -1.48916 
 H                    -0.80746   3.05115  -0.54648 
 C                     0.75197   2.34012   3.68118 
 O                    -0.32224   1.89077   4.03902 
 C                     1.31469   3.67745   4.05586 
 H                     1.20623   4.36045   3.20088 
 H                     2.38389   3.60512   4.28586 
 H                     0.75897   4.08081   4.90687 
 
 NAtoms=     36 NQM=       36 NQMF=       0 NMMI=      0 NMMIF=      0
                NMic=       0 NMicF=      0.
                    Isotopes and Nuclear Properties:
 (Nuclear quadrupole moments (NQMom) in fm**2, nuclear magnetic moments (NMagM)
  in nuclear magnetons)

  Atom         1           2           3           4           5           6           7           8           9          10
 IAtWgt=          12          12          12          12          12          12          16          16          16          16
 AtmWgt=  12.0000000  12.0000000  12.0000000  12.0000000  12.0000000  12.0000000  15.9949146  15.9949146  15.9949146  15.9949146
 NucSpn=           0           0           0           0           0           0           0           0           0           0
 AtZEff=   0.0000000   0.0000000   0.0000000   0.0000000   0.0000000   0.0000000   0.0000000   0.0000000   0.0000000   0.0000000
 NQMom=    0.0000000   0.0000000   0.0000000   0.0000000   0.0000000   0.0000000   0.0000000   0.0000000   0.0000000   0.0000000
 NMagM=    0.0000000   0.0000000   0.0000000   0.0000000   0.0000000   0.0000000   0.0000000   0.0000000   0.0000000   0.0000000
 AtZNuc=   6.0000000   6.0000000   6.0000000   6.0000000   6.0000000   6.0000000   8.0000000   8.0000000   8.0000000   8.0000000

  Atom        11          12          13          14          15          16          17          18          19          20
 IAtWgt=           1           1           1           1           1           1           1          16          12           1
 AtmWgt=   1.0078250   1.0078250   1.0078250   1.0078250   1.0078250   1.0078250   1.0078250  15.9949146  12.0000000   1.0078250
 NucSpn=           1           1           1           1           1           1           1           0           0           1
 AtZEff=   0.0000000   0.0000000   0.0000000   0.0000000   0.0000000   0.0000000   0.0000000   0.0000000   0.0000000   0.0000000
 NQMom=    0.0000000   0.0000000   0.0000000   0.0000000   0.0000000   0.0000000   0.0000000   0.0000000   0.0000000   0.0000000
 NMagM=    2.7928460   2.7928460   2.7928460   2.7928460   2.7928460   2.7928460   2.7928460   0.0000000   0.0000000   2.7928460
 AtZNuc=   1.0000000   1.0000000   1.0000000   1.0000000   1.0000000   1.0000000   1.0000000   8.0000000   6.0000000   1.0000000

  Atom        21          22          23          24          25          26          27          28          29          30
 IAtWgt=           1           1          12           1           1           1          12           1           1           1
 AtmWgt=   1.0078250   1.0078250  12.0000000   1.0078250   1.0078250   1.0078250  12.0000000   1.0078250   1.0078250   1.0078250
 NucSpn=           1           1           0           1           1           1           0           1           1           1
 AtZEff=   0.0000000   0.0000000   0.0000000   0.0000000   0.0000000   0.0000000   0.0000000   0.0000000   0.0000000   0.0000000
 NQMom=    0.0000000   0.0000000   0.0000000   0.0000000   0.0000000   0.0000000   0.0000000   0.0000000   0.0000000   0.0000000
 NMagM=    2.7928460   2.7928460   0.0000000   2.7928460   2.7928460   2.7928460   0.0000000   2.7928460   2.7928460   2.7928460
 AtZNuc=   1.0000000   1.0000000   6.0000000   1.0000000   1.0000000   1.0000000   6.0000000   1.0000000   1.0000000   1.0000000

  Atom        31          32          33          34          35          36
 IAtWgt=          12          16          12           1           1           1
 AtmWgt=  12.0000000  15.9949146  12.0000000   1.0078250   1.0078250   1.0078250
 NucSpn=           0           0           0           1           1           1
 AtZEff=   0.0000000   0.0000000   0.0000000   0.0000000   0.0000000   0.0000000
 NQMom=    0.0000000   0.0000000   0.0000000   0.0000000   0.0000000   0.0000000
 NMagM=    0.0000000   0.0000000   0.0000000   2.7928460   2.7928460   2.7928460
 AtZNuc=   6.0000000   8.0000000   6.0000000   1.0000000   1.0000000   1.0000000
 Leave Link  101 at Tue Jan 10 09:25:16 2017, MaxMem= 13421772800 cpu:         5.6
 (Enter /share/apps//g09/l103.exe)

 GradGradGradGradGradGradGradGradGradGradGradGradGradGradGradGradGradGrad
 Berny optimization.
 Initialization pass.
                           ----------------------------
                           !    Initial Parameters    !
                           ! (Angstroms and Degrees)  !
 --------------------------                            --------------------------
 ! Name  Definition              Value          Derivative Info.                !
 --------------------------------------------------------------------------------
 ! R1    R(1,2)                  1.5421         estimate D2E/DX2                !
 ! R2    R(1,10)                 1.5184         estimate D2E/DX2                !
 ! R3    R(1,11)                 1.0885         estimate D2E/DX2                !
 ! R4    R(1,12)                 1.0944         estimate D2E/DX2                !
 ! R5    R(2,3)                  1.544          estimate D2E/DX2                !
 ! R6    R(2,7)                  1.4731         estimate D2E/DX2                !
 ! R7    R(2,13)                 1.0931         estimate D2E/DX2                !
 ! R8    R(3,4)                  1.5374         estimate D2E/DX2                !
 ! R9    R(3,9)                  1.4385         estimate D2E/DX2                !
 ! R10   R(3,14)                 1.1008         estimate D2E/DX2                !
 ! R11   R(4,5)                  1.5577         estimate D2E/DX2                !
 ! R12   R(4,8)                  1.4193         estimate D2E/DX2                !
 ! R13   R(4,15)                 1.1038         estimate D2E/DX2                !
 ! R14   R(5,6)                  1.5367         estimate D2E/DX2                !
 ! R15   R(5,16)                 1.1038         estimate D2E/DX2                !
 ! R16   R(5,18)                 1.4182         estimate D2E/DX2                !
 ! R17   R(6,7)                  1.3543         estimate D2E/DX2                !
 ! R18   R(6,10)                 1.6323         estimate D2E/DX2                !
 ! R19   R(6,17)                 1.0976         estimate D2E/DX2                !
 ! R20   R(8,27)                 1.4347         estimate D2E/DX2                !
 ! R21   R(9,31)                 1.3714         estimate D2E/DX2                !
 ! R22   R(10,19)                1.4754         estimate D2E/DX2                !
 ! R23   R(18,23)                1.4386         estimate D2E/DX2                !
 ! R24   R(19,20)                1.0941         estimate D2E/DX2                !
 ! R25   R(19,21)                1.0972         estimate D2E/DX2                !
 ! R26   R(19,22)                1.0942         estimate D2E/DX2                !
 ! R27   R(23,24)                1.1026         estimate D2E/DX2                !
 ! R28   R(23,25)                1.1018         estimate D2E/DX2                !
 ! R29   R(23,26)                1.0949         estimate D2E/DX2                !
 ! R30   R(27,28)                1.1018         estimate D2E/DX2                !
 ! R31   R(27,29)                1.1033         estimate D2E/DX2                !
 ! R32   R(27,30)                1.0953         estimate D2E/DX2                !
 ! R33   R(31,32)                1.2182         estimate D2E/DX2                !
 ! R34   R(31,33)                1.4985         estimate D2E/DX2                !
 ! R35   R(33,34)                1.0997         estimate D2E/DX2                !
 ! R36   R(33,35)                1.096          estimate D2E/DX2                !
 ! R37   R(33,36)                1.0935         estimate D2E/DX2                !
 ! A1    A(2,1,10)             104.1438         estimate D2E/DX2                !
 ! A2    A(2,1,11)             115.0588         estimate D2E/DX2                !
 ! A3    A(2,1,12)             111.4215         estimate D2E/DX2                !
 ! A4    A(10,1,11)            105.1001         estimate D2E/DX2                !
 ! A5    A(10,1,12)            107.4003         estimate D2E/DX2                !
 ! A6    A(11,1,12)            112.8207         estimate D2E/DX2                !
 ! A7    A(1,2,3)              118.963          estimate D2E/DX2                !
 ! A8    A(1,2,7)              101.2728         estimate D2E/DX2                !
 ! A9    A(1,2,13)             111.5046         estimate D2E/DX2                !
 ! A10   A(3,2,7)              105.1213         estimate D2E/DX2                !
 ! A11   A(3,2,13)             112.2796         estimate D2E/DX2                !
 ! A12   A(7,2,13)             106.007          estimate D2E/DX2                !
 ! A13   A(2,3,4)              110.8275         estimate D2E/DX2                !
 ! A14   A(2,3,9)              118.821          estimate D2E/DX2                !
 ! A15   A(2,3,14)             104.6998         estimate D2E/DX2                !
 ! A16   A(4,3,9)              109.8238         estimate D2E/DX2                !
 ! A17   A(4,3,14)             107.5678         estimate D2E/DX2                !
 ! A18   A(9,3,14)             104.2167         estimate D2E/DX2                !
 ! A19   A(3,4,5)              109.1879         estimate D2E/DX2                !
 ! A20   A(3,4,8)              108.6145         estimate D2E/DX2                !
 ! A21   A(3,4,15)             108.9409         estimate D2E/DX2                !
 ! A22   A(5,4,8)              111.8976         estimate D2E/DX2                !
 ! A23   A(5,4,15)             107.0091         estimate D2E/DX2                !
 ! A24   A(8,4,15)             111.1346         estimate D2E/DX2                !
 ! A25   A(4,5,6)              112.776          estimate D2E/DX2                !
 ! A26   A(4,5,16)             108.7164         estimate D2E/DX2                !
 ! A27   A(4,5,18)             109.1275         estimate D2E/DX2                !
 ! A28   A(6,5,16)             109.4536         estimate D2E/DX2                !
 ! A29   A(6,5,18)             104.5363         estimate D2E/DX2                !
 ! A30   A(16,5,18)            112.2422         estimate D2E/DX2                !
 ! A31   A(5,6,7)              116.7115         estimate D2E/DX2                !
 ! A32   A(5,6,10)             105.6467         estimate D2E/DX2                !
 ! A33   A(5,6,17)             114.2037         estimate D2E/DX2                !
 ! A34   A(7,6,10)             101.1373         estimate D2E/DX2                !
 ! A35   A(7,6,17)             111.1543         estimate D2E/DX2                !
 ! A36   A(10,6,17)            106.3904         estimate D2E/DX2                !
 ! A37   A(2,7,6)              105.1726         estimate D2E/DX2                !
 ! A38   A(4,8,27)             113.8068         estimate D2E/DX2                !
 ! A39   A(3,9,31)             121.5632         estimate D2E/DX2                !
 ! A40   A(1,10,6)             102.3568         estimate D2E/DX2                !
 ! A41   A(1,10,19)            114.1061         estimate D2E/DX2                !
 ! A42   A(6,10,19)            113.9218         estimate D2E/DX2                !
 ! A43   A(5,18,23)            114.7446         estimate D2E/DX2                !
 ! A44   A(10,19,20)           106.3005         estimate D2E/DX2                !
 ! A45   A(10,19,21)           110.0024         estimate D2E/DX2                !
 ! A46   A(10,19,22)           106.5699         estimate D2E/DX2                !
 ! A47   A(20,19,21)           112.033          estimate D2E/DX2                !
 ! A48   A(20,19,22)           110.03           estimate D2E/DX2                !
 ! A49   A(21,19,22)           111.6245         estimate D2E/DX2                !
 ! A50   A(18,23,24)           112.0291         estimate D2E/DX2                !
 ! A51   A(18,23,25)           110.8058         estimate D2E/DX2                !
 ! A52   A(18,23,26)           105.9669         estimate D2E/DX2                !
 ! A53   A(24,23,25)           109.5739         estimate D2E/DX2                !
 ! A54   A(24,23,26)           108.8594         estimate D2E/DX2                !
 ! A55   A(25,23,26)           109.5096         estimate D2E/DX2                !
 ! A56   A(8,27,28)            110.6777         estimate D2E/DX2                !
 ! A57   A(8,27,29)            112.0742         estimate D2E/DX2                !
 ! A58   A(8,27,30)            106.3713         estimate D2E/DX2                !
 ! A59   A(28,27,29)           109.28           estimate D2E/DX2                !
 ! A60   A(28,27,30)           109.5274         estimate D2E/DX2                !
 ! A61   A(29,27,30)           108.8366         estimate D2E/DX2                !
 ! A62   A(9,31,32)            123.6001         estimate D2E/DX2                !
 ! A63   A(9,31,33)            110.461          estimate D2E/DX2                !
 ! A64   A(32,31,33)           125.9377         estimate D2E/DX2                !
 ! A65   A(31,33,34)           108.836          estimate D2E/DX2                !
 ! A66   A(31,33,35)           111.094          estimate D2E/DX2                !
 ! A67   A(31,33,36)           109.4477         estimate D2E/DX2                !
 ! A68   A(34,33,35)           107.479          estimate D2E/DX2                !
 ! A69   A(34,33,36)           109.0172         estimate D2E/DX2                !
 ! A70   A(35,33,36)           110.903          estimate D2E/DX2                !
 ! D1    D(10,1,2,3)            86.212          estimate D2E/DX2                !
 ! D2    D(10,1,2,7)           -28.2656         estimate D2E/DX2                !
 ! D3    D(10,1,2,13)         -140.646          estimate D2E/DX2                !
 ! D4    D(11,1,2,3)           -28.2687         estimate D2E/DX2                !
 ! D5    D(11,1,2,7)          -142.7463         estimate D2E/DX2                !
 ! D6    D(11,1,2,13)          104.8733         estimate D2E/DX2                !
 ! D7    D(12,1,2,3)          -158.3113         estimate D2E/DX2                !
 ! D8    D(12,1,2,7)            87.2111         estimate D2E/DX2                !
 ! D9    D(12,1,2,13)          -25.1693         estimate D2E/DX2                !
 ! D10   D(2,1,10,6)             1.1789         estimate D2E/DX2                !
 ! D11   D(2,1,10,19)          124.7375         estimate D2E/DX2                !
 ! D12   D(11,1,10,6)          122.5383         estimate D2E/DX2                !
 ! D13   D(11,1,10,19)        -113.9032         estimate D2E/DX2                !
 ! D14   D(12,1,10,6)         -117.0944         estimate D2E/DX2                !
 ! D15   D(12,1,10,19)           6.4642         estimate D2E/DX2                !
 ! D16   D(1,2,3,4)            -44.4449         estimate D2E/DX2                !
 ! D17   D(1,2,3,9)             84.1239         estimate D2E/DX2                !
 ! D18   D(1,2,3,14)          -160.1451         estimate D2E/DX2                !
 ! D19   D(7,2,3,4)             67.9503         estimate D2E/DX2                !
 ! D20   D(7,2,3,9)           -163.4809         estimate D2E/DX2                !
 ! D21   D(7,2,3,14)           -47.7499         estimate D2E/DX2                !
 ! D22   D(13,2,3,4)          -177.2528         estimate D2E/DX2                !
 ! D23   D(13,2,3,9)           -48.684          estimate D2E/DX2                !
 ! D24   D(13,2,3,14)           67.0471         estimate D2E/DX2                !
 ! D25   D(1,2,7,6)             50.8187         estimate D2E/DX2                !
 ! D26   D(3,2,7,6)            -73.6074         estimate D2E/DX2                !
 ! D27   D(13,2,7,6)           167.309          estimate D2E/DX2                !
 ! D28   D(2,3,4,5)            -48.036          estimate D2E/DX2                !
 ! D29   D(2,3,4,8)             74.2331         estimate D2E/DX2                !
 ! D30   D(2,3,4,15)          -164.5802         estimate D2E/DX2                !
 ! D31   D(9,3,4,5)            178.6965         estimate D2E/DX2                !
 ! D32   D(9,3,4,8)            -59.0343         estimate D2E/DX2                !
 ! D33   D(9,3,4,15)            62.1524         estimate D2E/DX2                !
 ! D34   D(14,3,4,5)            65.8686         estimate D2E/DX2                !
 ! D35   D(14,3,4,8)          -171.8622         estimate D2E/DX2                !
 ! D36   D(14,3,4,15)          -50.6755         estimate D2E/DX2                !
 ! D37   D(2,3,9,31)           -23.0744         estimate D2E/DX2                !
 ! D38   D(4,3,9,31)           105.9567         estimate D2E/DX2                !
 ! D39   D(14,3,9,31)         -139.0625         estimate D2E/DX2                !
 ! D40   D(3,4,5,6)             34.8946         estimate D2E/DX2                !
 ! D41   D(3,4,5,16)           156.4706         estimate D2E/DX2                !
 ! D42   D(3,4,5,18)           -80.8108         estimate D2E/DX2                !
 ! D43   D(8,4,5,6)            -85.3792         estimate D2E/DX2                !
 ! D44   D(8,4,5,16)            36.1968         estimate D2E/DX2                !
 ! D45   D(8,4,5,18)           158.9154         estimate D2E/DX2                !
 ! D46   D(15,4,5,6)           152.6606         estimate D2E/DX2                !
 ! D47   D(15,4,5,16)          -85.7634         estimate D2E/DX2                !
 ! D48   D(15,4,5,18)           36.9552         estimate D2E/DX2                !
 ! D49   D(3,4,8,27)           149.3801         estimate D2E/DX2                !
 ! D50   D(5,4,8,27)           -90.0119         estimate D2E/DX2                !
 ! D51   D(15,4,8,27)           29.5513         estimate D2E/DX2                !
 ! D52   D(4,5,6,7)            -46.2638         estimate D2E/DX2                !
 ! D53   D(4,5,6,10)            65.1744         estimate D2E/DX2                !
 ! D54   D(4,5,6,17)          -178.2628         estimate D2E/DX2                !
 ! D55   D(16,5,6,7)          -167.4214         estimate D2E/DX2                !
 ! D56   D(16,5,6,10)          -55.9832         estimate D2E/DX2                !
 ! D57   D(16,5,6,17)           60.5796         estimate D2E/DX2                !
 ! D58   D(18,5,6,7)            72.1608         estimate D2E/DX2                !
 ! D59   D(18,5,6,10)         -176.4009         estimate D2E/DX2                !
 ! D60   D(18,5,6,17)          -59.8381         estimate D2E/DX2                !
 ! D61   D(4,5,18,23)         -137.2125         estimate D2E/DX2                !
 ! D62   D(6,5,18,23)          101.9083         estimate D2E/DX2                !
 ! D63   D(16,5,18,23)         -16.6305         estimate D2E/DX2                !
 ! D64   D(5,6,7,2)             64.9152         estimate D2E/DX2                !
 ! D65   D(10,6,7,2)           -49.088          estimate D2E/DX2                !
 ! D66   D(17,6,7,2)          -161.7042         estimate D2E/DX2                !
 ! D67   D(5,6,10,1)           -93.2208         estimate D2E/DX2                !
 ! D68   D(5,6,10,19)          143.0972         estimate D2E/DX2                !
 ! D69   D(7,6,10,1)            28.8453         estimate D2E/DX2                !
 ! D70   D(7,6,10,19)          -94.8368         estimate D2E/DX2                !
 ! D71   D(17,6,10,1)          145.0317         estimate D2E/DX2                !
 ! D72   D(17,6,10,19)          21.3497         estimate D2E/DX2                !
 ! D73   D(4,8,27,28)          -59.1425         estimate D2E/DX2                !
 ! D74   D(4,8,27,29)           63.1264         estimate D2E/DX2                !
 ! D75   D(4,8,27,30)         -178.0401         estimate D2E/DX2                !
 ! D76   D(3,9,31,32)            6.7183         estimate D2E/DX2                !
 ! D77   D(3,9,31,33)         -173.6684         estimate D2E/DX2                !
 ! D78   D(1,10,19,20)         175.9531         estimate D2E/DX2                !
 ! D79   D(1,10,19,21)         -62.5541         estimate D2E/DX2                !
 ! D80   D(1,10,19,22)          58.6093         estimate D2E/DX2                !
 ! D81   D(6,10,19,20)         -66.9845         estimate D2E/DX2                !
 ! D82   D(6,10,19,21)          54.5083         estimate D2E/DX2                !
 ! D83   D(6,10,19,22)         175.6717         estimate D2E/DX2                !
 ! D84   D(5,18,23,24)         -63.0074         estimate D2E/DX2                !
 ! D85   D(5,18,23,25)          59.7011         estimate D2E/DX2                !
 ! D86   D(5,18,23,26)         178.4073         estimate D2E/DX2                !
 ! D87   D(9,31,33,34)          76.7322         estimate D2E/DX2                !
 ! D88   D(9,31,33,35)         -41.4148         estimate D2E/DX2                !
 ! D89   D(9,31,33,36)        -164.2179         estimate D2E/DX2                !
 ! D90   D(32,31,33,34)       -103.6657         estimate D2E/DX2                !
 ! D91   D(32,31,33,35)        138.1874         estimate D2E/DX2                !
 ! D92   D(32,31,33,36)         15.3842         estimate D2E/DX2                !
 --------------------------------------------------------------------------------
 Trust Radius=3.00D-01 FncErr=1.00D-07 GrdErr=1.00D-06
 Number of steps in this run=    216 maximum allowed number of steps=    216.
 GradGradGradGradGradGradGradGradGradGradGradGradGradGradGradGradGradGrad

 Leave Link  103 at Tue Jan 10 09:25:17 2017, MaxMem= 13421772800 cpu:         0.3
 (Enter /share/apps//g09/l202.exe)
                          Input orientation:                          
 ---------------------------------------------------------------------
 Center     Atomic      Atomic             Coordinates (Angstroms)
 Number     Number       Type             X           Y           Z
 ---------------------------------------------------------------------
      1          6           0       -1.316250   -0.131040    2.562310
      2          6           0        0.154860   -0.442100    2.904410
      3          6           0        1.268920    0.410100    2.258900
      4          6           0        0.998270    0.618950    0.760030
      5          6           0        0.646200   -0.750980    0.107620
      6          6           0       -0.147780   -1.671190    1.047980
      7          8           0        0.309270   -1.784520    2.317820
      8          8           0       -0.054700    1.559740    0.616580
      9          8           0        1.625490    1.662820    2.869420
     10          8           0       -1.577350   -0.922440    1.293070
     11          1           0       -1.518770    0.905020    2.297170
     12          1           0       -1.994810   -0.512780    3.331440
     13          1           0        0.298500   -0.565250    3.981060
     14          1           0        2.178280   -0.203570    2.349990
     15          1           0        1.922510    0.979150    0.275840
     16          1           0        0.058820   -0.566460   -0.808490
     17          1           0       -0.382540   -2.655250    0.622180
     18          8           0        1.844790   -1.461300   -0.157160
     19          6           0       -2.727130   -1.842720    1.382520
     20          1           0       -2.843420   -2.286310    0.389180
     21          1           0       -2.541470   -2.601480    2.152950
     22          1           0       -3.600250   -1.228750    1.623350
     23          6           0        1.886100   -2.116750   -1.437150
     24          1           0        1.110840   -2.895420   -1.528240
     25          1           0        1.773710   -1.386560   -2.254560
     26          1           0        2.871640   -2.589270   -1.501890
     27          6           0        0.034310    2.351050   -0.576790
     28          1           0        0.981030    2.914200   -0.600480
     29          1           0       -0.046610    1.735950   -1.489160
     30          1           0       -0.807460    3.051150   -0.546480
     31          6           0        0.751970    2.340120    3.681180
     32          8           0       -0.322240    1.890770    4.039020
     33          6           0        1.314690    3.677450    4.055860
     34          1           0        1.206230    4.360450    3.200880
     35          1           0        2.383890    3.605120    4.285860
     36          1           0        0.758970    4.080810    4.906870
 ---------------------------------------------------------------------
                    Distance matrix (angstroms):
                    1          2          3          4          5
     1  C    0.000000
     2  C    1.542062   0.000000
     3  C    2.658570   1.544039   0.000000
     4  C    3.027821   2.536835   1.537362   0.000000
     5  C    3.203286   2.856371   2.522676   1.557659   0.000000
     6  C    2.455724   2.246906   2.793767   2.577031   1.536707
     7  O    2.331542   1.473099   2.395988   2.945861   2.463069
     8  O    2.869862   3.047203   2.402261   1.419299   2.467737
     9  O    3.459203   2.568008   1.438466   2.435692   3.796443
    10  O    1.518373   2.414062   3.287817   3.048579   2.525641
    11  H    1.088455   2.232602   2.831541   2.963128   3.496221
    12  H    1.094409   2.192814   3.557244   4.105057   4.174289
    13  H    2.192899   1.093148   2.204282   3.502434   3.893447
    14  H    3.501725   2.111518   1.100829   2.144047   2.770406
    15  H    4.117042   3.471875   2.164145   1.103813   2.156528
    16  H    3.666429   3.716223   3.439025   2.178995   1.103776
    17  H    3.317764   3.224191   3.847407   3.556125   2.224707
    18  O    4.376903   3.642505   3.109841   2.425958   1.418196
    19  C    2.512436   3.547358   4.670295   4.508427   3.767840
    20  H    3.420516   4.326335   5.260971   4.830802   3.822821
    21  H    2.787797   3.535224   4.857974   4.984090   4.215325
    22  H    2.702456   4.044847   5.176733   5.030477   4.534097
    23  C    5.494886   4.964956   4.519587   3.619378   2.406033
    24  H    5.501378   5.155683   5.029302   4.195193   2.736887
    25  H    5.858875   5.488866   4.884068   3.702854   2.693536
    26  H    6.332380   5.604169   5.070352   4.349537   3.304908
    27  C    4.223592   4.464860   3.651395   2.390916   3.235030
    28  H    4.955222   4.922556   3.811752   2.668231   3.747941
    29  H    4.638108   4.907948   4.187655   2.719985   3.035542
    30  H    4.477698   5.003748   4.376832   3.298973   4.122762
    31  C    3.411163   2.949688   2.452569   3.399442   4.726142
    32  O    2.693779   2.637659   2.809449   3.756734   4.834524
    33  C    4.863860   4.431900   3.729174   4.507443   5.970467
    34  H    5.190776   4.925217   4.061591   4.472116   6.000717
    35  H    5.533584   4.822548   3.944601   4.823757   6.281151
    36  H    5.248160   4.983122   4.554767   5.407219   6.811146
                    6          7          8          9         10
     6  C    0.000000
     7  O    1.354338   0.000000
     8  O    3.260932   3.769717   0.000000
     9  O    4.192583   3.731066   2.812286   0.000000
    10  O    1.632289   2.313575   2.989535   4.407565   0.000000
    11  H    3.174421   3.252043   2.323046   3.284525   2.085967
    12  H    3.157154   2.820201   3.928082   4.248914   2.120624
    13  H    3.166264   2.062305   3.995004   2.821514   3.297224
    14  H    3.042974   2.448190   3.331692   2.014645   3.967192
    15  H    3.450595   3.796063   2.088671   2.698571   4.110939
    16  H    2.170160   3.364552   2.562116   4.577244   2.687067
    17  H    1.097630   2.027799   4.227724   5.265738   2.209139
    18  O    2.338109   2.930498   3.651495   4.355273   3.755606
    19  C    2.606604   3.177719   4.393777   5.783164   1.475436
    20  H    2.842334   3.729732   4.756130   6.458976   2.068838
    21  H    2.795738   2.970071   5.085293   6.005093   2.118513
    22  H    3.527939   4.009428   4.621708   6.101002   2.072447
    23  C    3.242077   4.086144   4.636927   5.735818   4.569022
    24  H    3.117655   4.082743   5.080077   6.354670   4.367929
    25  H    3.831437   4.817636   4.501912   5.964550   4.902111
    26  H    4.057290   4.669427   5.501424   6.224268   5.512135
    27  C    4.341826   5.055424   1.434652   3.857704   4.099946
    28  H    5.001743   5.571867   2.094883   3.744528   4.985042
    29  H    4.249226   5.197447   2.113115   4.668885   4.141377
    30  H    5.027721   5.730184   2.035598   4.417587   4.445907
    31  C    4.881998   4.366622   3.263661   1.371396   4.666165
    32  O    4.654494   4.107200   3.448805   2.283326   4.126705
    33  C    6.308257   5.819344   4.264806   2.358595   6.095563
    34  H    6.545915   6.272558   4.014041   2.750064   6.268731
    35  H    6.688248   6.101266   4.857357   2.520715   6.719153
    36  H    6.985609   6.427092   5.042265   3.278526   6.599277
                   11         12         13         14         15
    11  H    0.000000
    12  H    1.818374   0.000000
    13  H    2.880911   2.384120   0.000000
    14  H    3.860044   4.298085   2.514910   0.000000
    15  H    3.991701   5.187287   4.330270   2.401321   0.000000
    16  H    3.781424   4.621612   4.795543   3.820968   2.652927
    17  H    4.095379   3.811782   4.014224   3.943838   4.317646
    18  O    4.789232   5.273760   4.507636   2.824695   2.479783
    19  C    3.137960   2.470490   4.187932   5.261735   5.550391
    20  H    3.947114   3.538706   5.072998   5.779278   5.778422
    21  H    3.655442   2.459745   3.943811   5.297626   6.022588
    22  H    3.056070   2.451045   4.604268   5.913578   6.098482
    23  C    5.888071   6.354025   5.855307   4.253006   3.538398
    24  H    5.999330   6.240074   6.036719   4.840057   4.350380
    25  H    6.067125   6.794750   6.460167   4.771271   3.467225
    26  H    6.776328   7.166256   6.385957   4.583589   4.098145
    27  C    3.572493   5.252915   5.417435   4.437199   2.484831
    28  H    4.322289   6.004982   5.793352   4.456363   2.323519
    29  H    4.146564   5.664844   5.944571   4.842618   2.750528
    30  H    3.632930   5.399043   5.899162   5.281797   3.524504
    31  C    3.021797   3.975696   2.955797   3.205743   3.849512
    32  O    2.331829   3.012509   2.533912   3.673103   4.475654
    33  C    4.336802   5.388469   4.363341   4.326442   4.683889
    34  H    4.492473   5.831987   5.069041   4.743329   4.527925
    35  H    5.145501   6.086134   4.672659   4.277381   4.815480
    36  H    4.699391   5.582683   4.759730   5.187291   5.693905
                   16         17         18         19         20
    16  H    0.000000
    17  H    2.569953   0.000000
    18  O    2.101109   2.644596   0.000000
    19  C    3.767079   2.595270   4.839271   0.000000
    20  H    3.579846   2.499267   4.791497   1.094084   0.000000
    21  H    4.435419   2.647098   5.086836   1.097155   1.816973
    22  H    4.443115   3.659358   5.733477   1.094211   1.792875
    23  C    2.477411   3.110876   1.438644   5.413642   5.072730
    24  H    2.654965   2.629101   2.115477   4.930590   4.436630
    25  H    2.388416   3.812430   2.099935   5.804653   5.395999
    26  H    3.533344   3.886607   2.033479   6.342191   6.027424
    27  C    2.926799   5.164720   4.241219   5.390005   5.542521
    28  H    3.606762   5.862849   4.481921   6.349097   6.530785
    29  H    2.403231   4.883978   3.946394   5.314002   5.246797
    30  H    3.729101   5.840319   5.248638   5.599655   5.788702
    31  C    5.393125   5.966432   5.511615   5.906278   6.720710
    32  O    5.448077   5.687243   5.791400   5.174885   6.093084
    33  C    6.576464   7.400935   6.666130   7.345429   8.142534
    34  H    6.454924   7.641592   6.751071   7.566840   8.275551
    35  H    6.982867   7.763242   6.760153   8.014416   8.787368
    36  H    7.399505   8.064497   7.585406   7.724127   8.598078
                   21         22         23         24         25
    21  H    0.000000
    22  H    1.812699   0.000000
    23  C    5.720765   6.344702   0.000000
    24  H    5.193932   5.908018   1.102566   0.000000
    25  H    6.286728   6.628917   1.101802   1.800999   0.000000
    26  H    6.531444   7.314609   1.094877   1.787411   1.794011
    27  C    6.213990   5.555683   4.912289   5.439634   4.450860
    28  H    7.100149   6.564875   5.179732   5.884664   4.675560
    29  H    6.188909   5.577232   4.310611   4.773972   3.694519
    30  H    6.499688   5.552061   5.895401   6.324984   5.410476
    31  C    6.132018   5.992772   6.880933   7.394439   7.082733
    32  O    5.353742   5.129543   7.136205   7.480355   7.398854
    33  C    7.610256   7.358297   8.004525   8.627071   8.104091
    34  H    7.975706   7.538568   7.995478   8.661485   7.944305
    35  H    8.205508   8.140343   8.108048   8.813707   8.250229
    36  H    7.945438   7.614180   8.940177   9.497486   9.066858
                   26         27         28         29         30
    26  H    0.000000
    27  C    5.771743   0.000000
    28  H    5.888559   1.101807   0.000000
    29  H    5.217650   1.103320   1.798352   0.000000
    30  H    6.801685   1.095279   1.794538   1.788097   0.000000
    31  C    7.460302   4.318039   4.326043   5.266419   4.561852
    32  O    7.808541   4.652385   4.926549   5.537212   4.754864
    33  C    8.519651   4.985996   4.730262   6.030738   5.106594
    34  H    8.555013   4.436426   4.073413   5.518522   4.451058
    35  H    8.491550   5.544239   5.130468   6.538500   5.817483
    36  H    9.488179   5.795492   5.633932   6.859776   5.766535
                   31         32         33         34         35
    31  C    0.000000
    32  O    1.218151   0.000000
    33  C    1.498496   2.423231   0.000000
    34  H    2.125741   3.022916   1.099656   0.000000
    35  H    2.151517   3.212953   1.096048   1.770477   0.000000
    36  H    2.128936   2.591998   1.093500   1.785677   1.803413
                   36
    36  H    0.000000
 Stoichiometry    C11H19O6(1+)
 Framework group  C1[X(C11H19O6)]
 Deg. of freedom   102
 Full point group                 C1      NOp   1
 Largest Abelian subgroup         C1      NOp   1
 Largest concise Abelian subgroup C1      NOp   1
                         Standard orientation:                         
 ---------------------------------------------------------------------
 Center     Atomic      Atomic             Coordinates (Angstroms)
 Number     Number       Type             X           Y           Z
 ---------------------------------------------------------------------
      1          6           0       -0.226094    1.840931    0.333775
      2          6           0       -0.332443    1.053570   -0.987855
      3          6           0       -0.686660   -0.448428   -0.936937
      4          6           0        0.116671   -1.162532    0.162243
      5          6           0        1.617232   -0.762483    0.041504
      6          6           0        1.810256    0.691622   -0.416522
      7          8           0        1.060004    1.104014   -1.465944
      8          8           0       -0.426269   -0.806134    1.424228
      9          8           0       -2.070688   -0.832181   -0.857035
     10          8           0        1.205897    1.615748    0.785605
     11          1           0       -0.842820    1.462364    1.146838
     12          1           0       -0.352464    2.915623    0.170069
     13          1           0       -0.925697    1.594365   -1.729854
     14          1           0       -0.350953   -0.847620   -1.906354
     15          1           0        0.058814   -2.252456   -0.002444
     16          1           0        2.102180   -0.906327    1.022551
     17          1           0        2.859636    0.989476   -0.538490
     18          8           0        2.224990   -1.540127   -0.976917
     19          6           0        1.964902    2.858249    1.024380
     20          1           0        2.941747    2.551997    1.410388
     21          1           0        2.051610    3.430097    0.092060
     22          1           0        1.417428    3.416078    1.790146
     23          6           0        3.531392   -2.045972   -0.649610
     24          1           0        4.260488   -1.234769   -0.488300
     25          1           0        3.489672   -2.688040    0.244803
     26          1           0        3.848864   -2.640805   -1.512247
     27          6           0       -0.297457   -1.830610    2.420261
     28          1           0       -0.803258   -2.754217    2.096080
     29          1           0        0.758049   -2.054823    2.650368
     30          1           0       -0.782264   -1.445487    3.323742
     31          6           0       -3.025358    0.022044   -0.367514
     32          8           0       -2.805785    1.185477   -0.080978
     33          6           0       -4.345372   -0.677897   -0.252901
     34          1           0       -4.327373   -1.326561    0.634880
     35          1           0       -4.529882   -1.317074   -1.123951
     36          1           0       -5.141374    0.062824   -0.136906
 ---------------------------------------------------------------------
 Rotational constants (GHZ):      0.6577073      0.3787842      0.3199332
 Leave Link  202 at Tue Jan 10 09:25:17 2017, MaxMem= 13421772800 cpu:         0.6
 (Enter /share/apps//g09/l301.exe)
 Standard basis: 6-311+G(d,p) (5D, 7F)
 Ernie: Thresh=  0.10000D-02 Tol=  0.10000D-05 Strict=F.
 There are   505 symmetry adapted cartesian basis functions of A   symmetry.
 There are   488 symmetry adapted basis functions of A   symmetry.
   488 basis functions,   764 primitive gaussians,   505 cartesian basis functions
    66 alpha electrons       66 beta electrons
       nuclear repulsion energy      1446.1340068117 Hartrees.
 IExCor= 1009 DFT=T Ex+Corr=PBE1PBE ExCW=0 ScaHFX=  0.250000
 ScaDFX=  0.750000  0.750000  1.000000  1.000000 ScalE2=  1.000000  1.000000
 IRadAn=      0 IRanWt=     -1 IRanGd=            0 ICorTp=0 IEmpDi=131
 NAtoms=   36 NActive=   36 NUniq=   36 SFac= 1.00D+00 NAtFMM=   60 NAOKFM=F Big=F
 Integral buffers will be    131072 words long.
 Raffenetti 2 integral format.
 Two-electron integral symmetry is turned on.
 R6Disp:  Grimme-D3 Dispersion energy=       -0.0257909903 Hartrees.
 Nuclear repulsion after empirical dispersion term =     1446.1082158215 Hartrees.
 Leave Link  301 at Tue Jan 10 09:25:17 2017, MaxMem= 13421772800 cpu:         2.3
 (Enter /share/apps//g09/l302.exe)
 NPDir=0 NMtPBC=     1 NCelOv=     1 NCel=       1 NClECP=     1 NCelD=      1
         NCelK=      1 NCelE2=     1 NClLst=     1 CellRange=     0.0.
 One-electron integrals computed using PRISM.
 NBasis=   488 RedAO= T EigKep=  2.15D-06  NBF=   488
 NBsUse=   488 1.00D-06 EigRej= -1.00D+00 NBFU=   488
 Precomputing XC quadrature grid using
 IXCGrd= 4 IRadAn=           0 IRanWt=          -1 IRanGd=           0 AccXCQ= 0.00D+00.
 Generated NRdTot=       0 NPtTot=           0 NUsed=           0 NTot=          32
 NSgBfM=   504   504   504   504   504 MxSgAt=    36 MxSgA2=    36.
 Leave Link  302 at Tue Jan 10 09:25:18 2017, MaxMem= 13421772800 cpu:         8.4
 (Enter /share/apps//g09/l303.exe)
 DipDrv:  MaxL=1.
 Leave Link  303 at Tue Jan 10 09:25:18 2017, MaxMem= 13421772800 cpu:         4.4
 (Enter /share/apps//g09/l401.exe)
 ExpMin= 4.38D-02 ExpMax= 8.59D+03 ExpMxC= 1.30D+03 IAcc=2 IRadAn=         4 AccDes= 0.00D+00
 Harris functional with IExCor= 1009 and IRadAn=       4 diagonalized for initial guess.
 HarFok:  IExCor= 1009 AccDes= 0.00D+00 IRadAn=         4 IDoV= 1 UseB2=F ITyADJ=14
 ICtDFT=  3500011 ScaDFX=  1.000000  1.000000  1.000000  1.000000
 FoFCou: FMM=F IPFlag=           0 FMFlag=      100000 FMFlg1=           0
         NFxFlg=           0 DoJE=T BraDBF=F KetDBF=T FulRan=T
         wScrn=  0.000000 ICntrl=     500 IOpCl=  0 I1Cent=   200000004 NGrid=           0
         NMat0=    1 NMatS0=      1 NMatT0=    0 NMatD0=    1 NMtDS0=    0 NMtDT0=    0
 Petite list used in FoFCou.
 Harris En= -881.094511693972    
 JPrj=0 DoOrth=F DoCkMO=F.
 Leave Link  401 at Tue Jan 10 09:25:20 2017, MaxMem= 13421772800 cpu:        27.0
 (Enter /share/apps//g09/l502.exe)
 Closed shell SCF:
 Using DIIS extrapolation, IDIIS=  1040.
 Integral symmetry usage will be decided dynamically.
 Keep R1 ints in memory in canonical form, NReq=7183787934.
 IVT=      797493 IEndB=      797493 NGot= 13421772800 MDV=  6302761722
 LenX=  6302761722 LenY=  6302506192
 Requested convergence on RMS density matrix=1.00D-08 within 128 cycles.
 Requested convergence on MAX density matrix=1.00D-06.
 Requested convergence on             energy=1.00D-06.
 No special actions if energy rises.
 FoFCou: FMM=F IPFlag=           0 FMFlag=           0 FMFlg1=           0
         NFxFlg=           0 DoJE=F BraDBF=F KetDBF=F FulRan=T
         wScrn=  0.000000 ICntrl=     600 IOpCl=  0 I1Cent=           0 NGrid=           0
         NMat0=    1 NMatS0= 119316 NMatT0=    0 NMatD0=    1 NMtDS0=    0 NMtDT0=    0
 Symmetry not used in FoFCou.

 Cycle   1  Pass 1  IDiag  1:
 E= -880.617344430362    
 DIIS: error= 1.58D-02 at cycle   1 NSaved=   1.
 NSaved= 1 IEnMin= 1 EnMin= -880.617344430362     IErMin= 1 ErrMin= 1.58D-02
 ErrMax= 1.58D-02  0.00D+00 EMaxC= 1.00D-01 BMatC= 4.06D-01 BMatP= 4.06D-01
 IDIUse=3 WtCom= 8.42D-01 WtEn= 1.58D-01
 Coeff-Com:  0.100D+01
 Coeff-En:   0.100D+01
 Coeff:      0.100D+01
 Gap=     0.278 Goal=   None    Shift=    0.000
 GapD=    0.278 DampG=1.000 DampE=0.500 DampFc=0.5000 IDamp=-1.
 Damping current iteration by 5.00D-01
 RMSDP=1.46D-02 MaxDP=2.65D+00              OVMax= 2.15D-01

 Cycle   2  Pass 1  IDiag  1:
 E= -880.724257062269     Delta-E=       -0.106912631907 Rises=F Damp=T
 DIIS: error= 6.62D-03 at cycle   2 NSaved=   2.
 NSaved= 2 IEnMin= 2 EnMin= -880.724257062269     IErMin= 2 ErrMin= 6.62D-03
 ErrMax= 6.62D-03  0.00D+00 EMaxC= 1.00D-01 BMatC= 5.31D-02 BMatP= 4.06D-01
 IDIUse=3 WtCom= 9.34D-01 WtEn= 6.62D-02
 Coeff-Com:  0.115D+00 0.885D+00
 Coeff-En:   0.230D+00 0.770D+00
 Coeff:      0.122D+00 0.878D+00
 Gap=     0.314 Goal=   None    Shift=    0.000
 RMSDP=6.20D-03 MaxDP=1.27D+00 DE=-1.07D-01 OVMax= 1.32D-01

 Cycle   3  Pass 1  IDiag  1:
 E= -880.868903541141     Delta-E=       -0.144646478872 Rises=F Damp=F
 DIIS: error= 8.32D-03 at cycle   3 NSaved=   3.
 NSaved= 3 IEnMin= 3 EnMin= -880.868903541141     IErMin= 2 ErrMin= 6.62D-03
 ErrMax= 8.32D-03  0.00D+00 EMaxC= 1.00D-01 BMatC= 5.85D-02 BMatP= 5.31D-02
 IDIUse=3 WtCom= 9.88D-02 WtEn= 9.01D-01
 Coeff-Com: -0.399D-01 0.525D+00 0.514D+00
 Coeff-En:   0.000D+00 0.000D+00 0.100D+01
 Coeff:     -0.394D-02 0.519D-01 0.952D+00
 Gap=     0.254 Goal=   None    Shift=    0.000
 RMSDP=5.10D-03 MaxDP=9.11D-01 DE=-1.45D-01 OVMax= 1.85D-01

 Cycle   4  Pass 1  IDiag  1:
 E= -880.743248278496     Delta-E=        0.125655262644 Rises=F Damp=F
 DIIS: error= 1.87D-02 at cycle   4 NSaved=   4.
 NSaved= 4 IEnMin= 3 EnMin= -880.868903541141     IErMin= 2 ErrMin= 6.62D-03
 ErrMax= 1.87D-02  0.00D+00 EMaxC= 1.00D-01 BMatC= 2.30D-01 BMatP= 5.31D-02
 IDIUse=2 WtCom= 0.00D+00 WtEn= 1.00D+00
 Coeff-En:   0.000D+00 0.000D+00 0.743D+00 0.257D+00
 Coeff:      0.000D+00 0.000D+00 0.743D+00 0.257D+00
 Gap=     0.253 Goal=   None    Shift=    0.000
 RMSDP=3.23D-03 MaxDP=6.89D-01 DE= 1.26D-01 OVMax= 8.54D-02

 Cycle   5  Pass 1  IDiag  1:
 E= -880.903244043565     Delta-E=       -0.159995765068 Rises=F Damp=F
 DIIS: error= 3.78D-03 at cycle   5 NSaved=   5.
 NSaved= 5 IEnMin= 5 EnMin= -880.903244043565     IErMin= 5 ErrMin= 3.78D-03
 ErrMax= 3.78D-03  0.00D+00 EMaxC= 1.00D-01 BMatC= 1.25D-02 BMatP= 5.31D-02
 IDIUse=3 WtCom= 9.62D-01 WtEn= 3.78D-02
 Coeff-Com:  0.743D-02-0.120D-02 0.342D+00 0.338D-01 0.618D+00
 Coeff-En:   0.000D+00 0.000D+00 0.215D+00 0.000D+00 0.785D+00
 Coeff:      0.715D-02-0.116D-02 0.338D+00 0.326D-01 0.624D+00
 Gap=     0.269 Goal=   None    Shift=    0.000
 RMSDP=9.44D-04 MaxDP=1.83D-01 DE=-1.60D-01 OVMax= 1.73D-02

 Cycle   6  Pass 1  IDiag  1:
 E= -880.912196023461     Delta-E=       -0.008951979896 Rises=F Damp=F
 DIIS: error= 4.91D-04 at cycle   6 NSaved=   6.
 NSaved= 6 IEnMin= 6 EnMin= -880.912196023461     IErMin= 6 ErrMin= 4.91D-04
 ErrMax= 4.91D-04  0.00D+00 EMaxC= 1.00D-01 BMatC= 2.26D-04 BMatP= 1.25D-02
 IDIUse=3 WtCom= 9.95D-01 WtEn= 4.91D-03
 Coeff-Com:  0.457D-03-0.902D-03 0.119D+00-0.282D-01 0.394D+00 0.515D+00
 Coeff-En:   0.000D+00 0.000D+00 0.000D+00 0.000D+00 0.000D+00 0.100D+01
 Coeff:      0.455D-03-0.898D-03 0.118D+00-0.281D-01 0.392D+00 0.518D+00
 Gap=     0.261 Goal=   None    Shift=    0.000
 RMSDP=1.15D-04 MaxDP=1.78D-02 DE=-8.95D-03 OVMax= 1.91D-03

 Cycle   7  Pass 1  IDiag  1:
 E= -880.912348035926     Delta-E=       -0.000152012465 Rises=F Damp=F
 DIIS: error= 1.21D-04 at cycle   7 NSaved=   7.
 NSaved= 7 IEnMin= 7 EnMin= -880.912348035926     IErMin= 7 ErrMin= 1.21D-04
 ErrMax= 1.21D-04  0.00D+00 EMaxC= 1.00D-01 BMatC= 1.17D-05 BMatP= 2.26D-04
 IDIUse=3 WtCom= 9.99D-01 WtEn= 1.21D-03
 Coeff-Com: -0.386D-03-0.128D-03 0.492D-01-0.205D-01 0.197D+00 0.288D+00
 Coeff-Com:  0.487D+00
 Coeff-En:   0.000D+00 0.000D+00 0.000D+00 0.000D+00 0.000D+00 0.000D+00
 Coeff-En:   0.100D+01
 Coeff:     -0.386D-03-0.128D-03 0.491D-01-0.205D-01 0.197D+00 0.287D+00
 Coeff:      0.488D+00
 Gap=     0.261 Goal=   None    Shift=    0.000
 RMSDP=2.47D-05 MaxDP=3.55D-03 DE=-1.52D-04 OVMax= 4.65D-04

 Cycle   8  Pass 1  IDiag  1:
 E= -880.912356250218     Delta-E=       -0.000008214292 Rises=F Damp=F
 DIIS: error= 2.38D-05 at cycle   8 NSaved=   8.
 NSaved= 8 IEnMin= 8 EnMin= -880.912356250218     IErMin= 8 ErrMin= 2.38D-05
 ErrMax= 2.38D-05  0.00D+00 EMaxC= 1.00D-01 BMatC= 6.71D-07 BMatP= 1.17D-05
 IDIUse=1 WtCom= 1.00D+00 WtEn= 0.00D+00
 Coeff-Com: -0.113D-03 0.171D-03 0.607D-02-0.510D-02 0.312D-01 0.422D-01
 Coeff-Com:  0.200D+00 0.725D+00
 Coeff:     -0.113D-03 0.171D-03 0.607D-02-0.510D-02 0.312D-01 0.422D-01
 Coeff:      0.200D+00 0.725D+00
 Gap=     0.261 Goal=   None    Shift=    0.000
 RMSDP=9.73D-06 MaxDP=2.32D-03 DE=-8.21D-06 OVMax= 1.53D-04

 Cycle   9  Pass 1  IDiag  1:
 E= -880.912356745849     Delta-E=       -0.000000495631 Rises=F Damp=F
 DIIS: error= 7.61D-06 at cycle   9 NSaved=   9.
 NSaved= 9 IEnMin= 9 EnMin= -880.912356745849     IErMin= 9 ErrMin= 7.61D-06
 ErrMax= 7.61D-06  0.00D+00 EMaxC= 1.00D-01 BMatC= 5.38D-08 BMatP= 6.71D-07
 IDIUse=1 WtCom= 1.00D+00 WtEn= 0.00D+00
 Coeff-Com: -0.207D-04 0.123D-04 0.546D-03-0.132D-02 0.489D-02 0.399D-02
 Coeff-Com:  0.706D-01 0.359D+00 0.562D+00
 Coeff:     -0.207D-04 0.123D-04 0.546D-03-0.132D-02 0.489D-02 0.399D-02
 Coeff:      0.706D-01 0.359D+00 0.562D+00
 Gap=     0.261 Goal=   None    Shift=    0.000
 RMSDP=3.33D-06 MaxDP=5.40D-04 DE=-4.96D-07 OVMax= 3.06D-05

 Cycle  10  Pass 1  IDiag  1:
 E= -880.912356787736     Delta-E=       -0.000000041887 Rises=F Damp=F
 DIIS: error= 1.78D-06 at cycle  10 NSaved=  10.
 NSaved=10 IEnMin=10 EnMin= -880.912356787736     IErMin=10 ErrMin= 1.78D-06
 ErrMax= 1.78D-06  0.00D+00 EMaxC= 1.00D-01 BMatC= 3.97D-09 BMatP= 5.38D-08
 IDIUse=1 WtCom= 1.00D+00 WtEn= 0.00D+00
 Coeff-Com: -0.164D-05-0.176D-04-0.381D-03-0.794D-04-0.858D-03-0.238D-02
 Coeff-Com:  0.988D-02 0.816D-01 0.247D+00 0.665D+00
 Coeff:     -0.164D-05-0.176D-04-0.381D-03-0.794D-04-0.858D-03-0.238D-02
 Coeff:      0.988D-02 0.816D-01 0.247D+00 0.665D+00
 Gap=     0.261 Goal=   None    Shift=    0.000
 RMSDP=8.96D-07 MaxDP=1.51D-04 DE=-4.19D-08 OVMax= 1.14D-05

 Cycle  11  Pass 1  IDiag  1:
 E= -880.912356790687     Delta-E=       -0.000000002951 Rises=F Damp=F
 DIIS: error= 6.38D-07 at cycle  11 NSaved=  11.
 NSaved=11 IEnMin=11 EnMin= -880.912356790687     IErMin=11 ErrMin= 6.38D-07
 ErrMax= 6.38D-07  0.00D+00 EMaxC= 1.00D-01 BMatC= 4.73D-10 BMatP= 3.97D-09
 IDIUse=1 WtCom= 1.00D+00 WtEn= 0.00D+00
 Coeff-Com:  0.626D-06-0.809D-05-0.271D-03 0.100D-03-0.991D-03-0.168D-02
 Coeff-Com: -0.220D-02 0.668D-02 0.679D-01 0.312D+00 0.619D+00
 Coeff:      0.626D-06-0.809D-05-0.271D-03 0.100D-03-0.991D-03-0.168D-02
 Coeff:     -0.220D-02 0.668D-02 0.679D-01 0.312D+00 0.619D+00
 Gap=     0.261 Goal=   None    Shift=    0.000
 RMSDP=2.55D-07 MaxDP=4.20D-05 DE=-2.95D-09 OVMax= 4.19D-06

 Cycle  12  Pass 1  IDiag  1:
 E= -880.912356791019     Delta-E=       -0.000000000332 Rises=F Damp=F
 DIIS: error= 2.26D-07 at cycle  12 NSaved=  12.
 NSaved=12 IEnMin=12 EnMin= -880.912356791019     IErMin=12 ErrMin= 2.26D-07
 ErrMax= 2.26D-07  0.00D+00 EMaxC= 1.00D-01 BMatC= 5.33D-11 BMatP= 4.73D-10
 IDIUse=1 WtCom= 1.00D+00 WtEn= 0.00D+00
 Coeff-Com: -0.142D-05 0.179D-05-0.884D-04 0.445D-04-0.329D-03-0.446D-03
 Coeff-Com: -0.199D-02-0.520D-02 0.569D-02 0.722D-01 0.298D+00 0.632D+00
 Coeff:     -0.142D-05 0.179D-05-0.884D-04 0.445D-04-0.329D-03-0.446D-03
 Coeff:     -0.199D-02-0.520D-02 0.569D-02 0.722D-01 0.298D+00 0.632D+00
 Gap=     0.261 Goal=   None    Shift=    0.000
 RMSDP=1.15D-07 MaxDP=2.16D-05 DE=-3.32D-10 OVMax= 1.18D-06

 Cycle  13  Pass 1  IDiag  1:
 E= -880.912356791084     Delta-E=       -0.000000000065 Rises=F Damp=F
 DIIS: error= 5.84D-08 at cycle  13 NSaved=  13.
 NSaved=13 IEnMin=13 EnMin= -880.912356791084     IErMin=13 ErrMin= 5.84D-08
 ErrMax= 5.84D-08  0.00D+00 EMaxC= 1.00D-01 BMatC= 2.52D-12 BMatP= 5.33D-11
 IDIUse=1 WtCom= 1.00D+00 WtEn= 0.00D+00
 Coeff-Com: -0.833D-06 0.218D-05-0.131D-04 0.804D-05-0.455D-04-0.464D-04
 Coeff-Com: -0.567D-03-0.236D-02-0.267D-02 0.426D-02 0.675D-01 0.238D+00
 Coeff-Com:  0.696D+00
 Coeff:     -0.833D-06 0.218D-05-0.131D-04 0.804D-05-0.455D-04-0.464D-04
 Coeff:     -0.567D-03-0.236D-02-0.267D-02 0.426D-02 0.675D-01 0.238D+00
 Coeff:      0.696D+00
 Gap=     0.261 Goal=   None    Shift=    0.000
 RMSDP=1.69D-08 MaxDP=2.04D-06 DE=-6.55D-11 OVMax= 4.02D-07

 Cycle  14  Pass 1  IDiag  1:
 E= -880.912356791112     Delta-E=       -0.000000000028 Rises=F Damp=F
 DIIS: error= 1.80D-08 at cycle  14 NSaved=  14.
 NSaved=14 IEnMin=14 EnMin= -880.912356791112     IErMin=14 ErrMin= 1.80D-08
 ErrMax= 1.80D-08  0.00D+00 EMaxC= 1.00D-01 BMatC= 4.76D-13 BMatP= 2.52D-12
 IDIUse=1 WtCom= 1.00D+00 WtEn= 0.00D+00
 Coeff-Com: -0.266D-06 0.949D-06 0.252D-05-0.640D-06 0.983D-05 0.139D-04
 Coeff-Com: -0.688D-04-0.684D-03-0.216D-02-0.684D-02-0.336D-02 0.382D-01
 Coeff-Com:  0.330D+00 0.645D+00
 Coeff:     -0.266D-06 0.949D-06 0.252D-05-0.640D-06 0.983D-05 0.139D-04
 Coeff:     -0.688D-04-0.684D-03-0.216D-02-0.684D-02-0.336D-02 0.382D-01
 Coeff:      0.330D+00 0.645D+00
 Gap=     0.261 Goal=   None    Shift=    0.000
 RMSDP=7.92D-09 MaxDP=9.90D-07 DE=-2.82D-11 OVMax= 1.05D-07

 SCF Done:  E(RPBE1PBE) =  -880.912356791     A.U. after   14 cycles
            NFock= 14  Conv=0.79D-08     -V/T= 2.0044
 KE= 8.770888186194D+02 PE=-4.935712044647D+03 EE= 1.731602653415D+03
 Leave Link  502 at Tue Jan 10 09:28:45 2017, MaxMem= 13421772800 cpu:      1070.6
 (Enter /share/apps//g09/l601.exe)
 Copying SCF densities to generalized density rwf, IOpCl= 0 IROHF=0.

 **********************************************************************

            Population analysis using the SCF density.

 **********************************************************************

 Orbital symmetries:
       Occupied  (A) (A) (A) (A) (A) (A) (A) (A) (A) (A) (A) (A)
                 (A) (A) (A) (A) (A) (A) (A) (A) (A) (A) (A) (A)
                 (A) (A) (A) (A) (A) (A) (A) (A) (A) (A) (A) (A)
                 (A) (A) (A) (A) (A) (A) (A) (A) (A) (A) (A) (A)
                 (A) (A) (A) (A) (A) (A) (A) (A) (A) (A) (A) (A)
                 (A) (A) (A) (A) (A) (A)
       Virtual   (A) (A) (A) (A) (A) (A) (A) (A) (A) (A) (A) (A)
                 (A) (A) (A) (A) (A) (A) (A) (A) (A) (A) (A) (A)
                 (A) (A) (A) (A) (A) (A) (A) (A) (A) (A) (A) (A)
                 (A) (A) (A) (A) (A) (A) (A) (A) (A) (A) (A) (A)
                 (A) (A) (A) (A) (A) (A) (A) (A) (A) (A) (A) (A)
                 (A) (A) (A) (A) (A) (A) (A) (A) (A) (A) (A) (A)
                 (A) (A) (A) (A) (A) (A) (A) (A) (A) (A) (A) (A)
                 (A) (A) (A) (A) (A) (A) (A) (A) (A) (A) (A) (A)
                 (A) (A) (A) (A) (A) (A) (A) (A) (A) (A) (A) (A)
                 (A) (A) (A) (A) (A) (A) (A) (A) (A) (A) (A) (A)
                 (A) (A) (A) (A) (A) (A) (A) (A) (A) (A) (A) (A)
                 (A) (A) (A) (A) (A) (A) (A) (A) (A) (A) (A) (A)
                 (A) (A) (A) (A) (A) (A) (A) (A) (A) (A) (A) (A)
                 (A) (A) (A) (A) (A) (A) (A) (A) (A) (A) (A) (A)
                 (A) (A) (A) (A) (A) (A) (A) (A) (A) (A) (A) (A)
                 (A) (A) (A) (A) (A) (A) (A) (A) (A) (A) (A) (A)
                 (A) (A) (A) (A) (A) (A) (A) (A) (A) (A) (A) (A)
                 (A) (A) (A) (A) (A) (A) (A) (A) (A) (A) (A) (A)
                 (A) (A) (A) (A) (A) (A) (A) (A) (A) (A) (A) (A)
                 (A) (A) (A) (A) (A) (A) (A) (A) (A) (A) (A) (A)
                 (A) (A) (A) (A) (A) (A) (A) (A) (A) (A) (A) (A)
                 (A) (A) (A) (A) (A) (A) (A) (A) (A) (A) (A) (A)
                 (A) (A) (A) (A) (A) (A) (A) (A) (A) (A) (A) (A)
                 (A) (A) (A) (A) (A) (A) (A) (A) (A) (A) (A) (A)
                 (A) (A) (A) (A) (A) (A) (A) (A) (A) (A) (A) (A)
                 (A) (A) (A) (A) (A) (A) (A) (A) (A) (A) (A) (A)
                 (A) (A) (A) (A) (A) (A) (A) (A) (A) (A) (A) (A)
                 (A) (A) (A) (A) (A) (A) (A) (A) (A) (A) (A) (A)
                 (A) (A) (A) (A) (A) (A) (A) (A) (A) (A) (A) (A)
                 (A) (A) (A) (A) (A) (A) (A) (A) (A) (A) (A) (A)
                 (A) (A) (A) (A) (A) (A) (A) (A) (A) (A) (A) (A)
                 (A) (A) (A) (A) (A) (A) (A) (A) (A) (A) (A) (A)
                 (A) (A) (A) (A) (A) (A) (A) (A) (A) (A) (A) (A)
                 (A) (A) (A) (A) (A) (A) (A) (A) (A) (A) (A) (A)
                 (A) (A) (A) (A) (A) (A) (A) (A) (A) (A) (A) (A)
                 (A) (A)
 The electronic state is 1-A.
 Alpha  occ. eigenvalues --  -19.47817 -19.40824 -19.37930 -19.35946 -19.35172
 Alpha  occ. eigenvalues --  -19.31807 -10.51961 -10.48273 -10.45646 -10.45223
 Alpha  occ. eigenvalues --  -10.45110 -10.44308 -10.43769 -10.42879 -10.39338
 Alpha  occ. eigenvalues --  -10.38875 -10.33591  -1.32506  -1.26086  -1.25301
 Alpha  occ. eigenvalues --   -1.21554  -1.20363  -1.17412  -0.99130  -0.97095
 Alpha  occ. eigenvalues --   -0.93266  -0.89394  -0.86711  -0.85043  -0.83702
 Alpha  occ. eigenvalues --   -0.81639  -0.80328  -0.75557  -0.74166  -0.72311
 Alpha  occ. eigenvalues --   -0.68695  -0.67079  -0.66487  -0.66079  -0.65027
 Alpha  occ. eigenvalues --   -0.64843  -0.63172  -0.61940  -0.61583  -0.61000
 Alpha  occ. eigenvalues --   -0.59497  -0.59335  -0.58648  -0.58284  -0.57490
 Alpha  occ. eigenvalues --   -0.56261  -0.55307  -0.54679  -0.53459  -0.52311
 Alpha  occ. eigenvalues --   -0.52052  -0.51830  -0.51272  -0.49835  -0.48369
 Alpha  occ. eigenvalues --   -0.47947  -0.46505  -0.44100  -0.43061  -0.41718
 Alpha  occ. eigenvalues --   -0.40803
 Alpha virt. eigenvalues --   -0.14726  -0.12199  -0.11579  -0.10926  -0.09620
 Alpha virt. eigenvalues --   -0.09180  -0.08872  -0.07429  -0.07178  -0.06756
 Alpha virt. eigenvalues --   -0.06600  -0.06324  -0.05543  -0.05156  -0.04280
 Alpha virt. eigenvalues --   -0.04130  -0.03719  -0.03539  -0.03113  -0.02502
 Alpha virt. eigenvalues --   -0.01907  -0.01821  -0.01349  -0.01007  -0.00890
 Alpha virt. eigenvalues --   -0.00306   0.00227   0.00958   0.01470   0.01836
 Alpha virt. eigenvalues --    0.01907   0.02501   0.02672   0.03030   0.03320
 Alpha virt. eigenvalues --    0.03524   0.04003   0.04262   0.04744   0.05121
 Alpha virt. eigenvalues --    0.05302   0.05772   0.05890   0.06410   0.06622
 Alpha virt. eigenvalues --    0.07290   0.07534   0.07994   0.08543   0.08630
 Alpha virt. eigenvalues --    0.09380   0.09485   0.09735   0.10432   0.10548
 Alpha virt. eigenvalues --    0.10752   0.10941   0.11262   0.12157   0.12333
 Alpha virt. eigenvalues --    0.12504   0.12721   0.13282   0.13744   0.14020
 Alpha virt. eigenvalues --    0.14460   0.14702   0.15294   0.16017   0.16316
 Alpha virt. eigenvalues --    0.17137   0.17238   0.17623   0.17938   0.18614
 Alpha virt. eigenvalues --    0.19106   0.19956   0.20369   0.20941   0.21762
 Alpha virt. eigenvalues --    0.22112   0.22660   0.23169   0.23517   0.24358
 Alpha virt. eigenvalues --    0.24489   0.24641   0.25040   0.25580   0.25843
 Alpha virt. eigenvalues --    0.26098   0.27034   0.27655   0.27898   0.28316
 Alpha virt. eigenvalues --    0.29266   0.29879   0.30556   0.31024   0.31550
 Alpha virt. eigenvalues --    0.32735   0.33591   0.33804   0.34676   0.34769
 Alpha virt. eigenvalues --    0.35480   0.36097   0.36884   0.37661   0.38208
 Alpha virt. eigenvalues --    0.39490   0.39949   0.40532   0.41191   0.41964
 Alpha virt. eigenvalues --    0.43471   0.43974   0.44796   0.45097   0.46488
 Alpha virt. eigenvalues --    0.47120   0.48066   0.48685   0.49509   0.49883
 Alpha virt. eigenvalues --    0.51430   0.51914   0.52403   0.52918   0.53336
 Alpha virt. eigenvalues --    0.53794   0.54709   0.55274   0.55641   0.56177
 Alpha virt. eigenvalues --    0.56297   0.56946   0.57349   0.57979   0.58608
 Alpha virt. eigenvalues --    0.59166   0.60335   0.61536   0.61739   0.61782
 Alpha virt. eigenvalues --    0.62248   0.63348   0.63929   0.64466   0.65116
 Alpha virt. eigenvalues --    0.66342   0.67584   0.67888   0.70914   0.71774
 Alpha virt. eigenvalues --    0.72854   0.74184   0.77391   0.77642   0.80072
 Alpha virt. eigenvalues --    0.82013   0.85532   0.88055   0.89324   0.89887
 Alpha virt. eigenvalues --    0.90230   0.90592   0.92220   0.93303   0.94917
 Alpha virt. eigenvalues --    0.95764   0.97191   0.97627   1.00776   1.02678
 Alpha virt. eigenvalues --    1.03195   1.04934   1.06234   1.06541   1.07889
 Alpha virt. eigenvalues --    1.10837   1.11159   1.12392   1.13318   1.14512
 Alpha virt. eigenvalues --    1.15752   1.17160   1.17747   1.19650   1.20551
 Alpha virt. eigenvalues --    1.21365   1.22376   1.22933   1.23514   1.26939
 Alpha virt. eigenvalues --    1.27216   1.29045   1.29827   1.30209   1.31111
 Alpha virt. eigenvalues --    1.31849   1.33362   1.33765   1.34455   1.35493
 Alpha virt. eigenvalues --    1.36203   1.36991   1.37968   1.38875   1.40585
 Alpha virt. eigenvalues --    1.41011   1.42021   1.42495   1.43398   1.44703
 Alpha virt. eigenvalues --    1.45390   1.45954   1.46109   1.47047   1.47310
 Alpha virt. eigenvalues --    1.47981   1.48833   1.49342   1.49948   1.50400
 Alpha virt. eigenvalues --    1.51395   1.52430   1.53461   1.54210   1.54865
 Alpha virt. eigenvalues --    1.55937   1.56820   1.57639   1.58475   1.59900
 Alpha virt. eigenvalues --    1.60337   1.61373   1.63252   1.63983   1.64890
 Alpha virt. eigenvalues --    1.67075   1.67305   1.68090   1.68833   1.69638
 Alpha virt. eigenvalues --    1.70970   1.72852   1.73743   1.74231   1.75517
 Alpha virt. eigenvalues --    1.77184   1.78432   1.79636   1.80910   1.81713
 Alpha virt. eigenvalues --    1.82313   1.83968   1.85094   1.87542   1.87724
 Alpha virt. eigenvalues --    1.89725   1.90180   1.92838   1.93043   1.94784
 Alpha virt. eigenvalues --    1.96148   1.97905   1.98583   1.99598   2.00839
 Alpha virt. eigenvalues --    2.01519   2.02665   2.04576   2.05941   2.07855
 Alpha virt. eigenvalues --    2.08581   2.09545   2.11245   2.13790   2.15164
 Alpha virt. eigenvalues --    2.15199   2.17331   2.19019   2.22171   2.27261
 Alpha virt. eigenvalues --    2.28796   2.30022   2.32043   2.34494   2.35043
 Alpha virt. eigenvalues --    2.36120   2.37315   2.37762   2.39330   2.40054
 Alpha virt. eigenvalues --    2.40896   2.41822   2.42508   2.43793   2.44568
 Alpha virt. eigenvalues --    2.45041   2.45500   2.46965   2.48689   2.49388
 Alpha virt. eigenvalues --    2.49793   2.51062   2.51661   2.52830   2.54027
 Alpha virt. eigenvalues --    2.55572   2.56885   2.57960   2.59403   2.61682
 Alpha virt. eigenvalues --    2.63653   2.65575   2.66308   2.68113   2.71814
 Alpha virt. eigenvalues --    2.72397   2.73820   2.74715   2.76163   2.77368
 Alpha virt. eigenvalues --    2.79251   2.80293   2.80838   2.83006   2.85508
 Alpha virt. eigenvalues --    2.86069   2.87401   2.89545   2.90897   2.91253
 Alpha virt. eigenvalues --    2.93007   2.94667   2.95752   2.97214   2.98494
 Alpha virt. eigenvalues --    3.00388   3.02308   3.02868   3.05646   3.07005
 Alpha virt. eigenvalues --    3.07920   3.09638   3.10529   3.11386   3.12564
 Alpha virt. eigenvalues --    3.13391   3.17196   3.17533   3.19182   3.21505
 Alpha virt. eigenvalues --    3.26192   3.28866   3.30269   3.38907   3.48293
 Alpha virt. eigenvalues --    3.57052   3.60526   3.62538   3.66836   3.67670
 Alpha virt. eigenvalues --    3.68332   3.69331   3.70540   3.70841   3.71289
 Alpha virt. eigenvalues --    3.77395   3.80471   3.81535   3.83881   3.86388
 Alpha virt. eigenvalues --    3.91076   3.94573   3.96350   3.96841   4.01397
 Alpha virt. eigenvalues --    4.02546   4.02955   4.06976   4.11106   4.14151
 Alpha virt. eigenvalues --    4.16177   4.24144   5.00848   5.03257   5.04115
 Alpha virt. eigenvalues --    5.05832   5.06753   5.09591   5.16332   5.20723
 Alpha virt. eigenvalues --    5.26628   5.30045   5.31189   5.37281   5.38891
 Alpha virt. eigenvalues --    5.52352   5.56340   5.58252   5.62569   5.83075
 Alpha virt. eigenvalues --   23.69167  23.73934  23.78950  23.80496  23.81362
 Alpha virt. eigenvalues --   23.82802  23.85893  23.88383  23.91825  23.92229
 Alpha virt. eigenvalues --   23.94976  49.90663  49.91622  49.92930  49.96981
 Alpha virt. eigenvalues --   50.00437  50.02292
          Condensed to atoms (all electrons):
               1          2          3          4          5          6
     1  C    8.861130  -2.715579   2.080205  -2.356369   1.094959  -0.735412
     2  C   -2.715579  14.134838  -9.491673   4.118349  -0.906900   0.526938
     3  C    2.080205  -9.491673  25.032731 -10.976787   2.103043  -2.573377
     4  C   -2.356369   4.118349 -10.976787  21.630148  -7.948885   2.156392
     5  C    1.094959  -0.906900   2.103043  -7.948885  17.168765  -6.571917
     6  C   -0.735412   0.526938  -2.573377   2.156392  -6.571917  14.949880
     7  O    0.050539   0.031292   0.230355  -0.248073   0.117927   0.067220
     8  O    0.194438  -0.303118   0.268611  -0.525258   0.369219  -0.152005
     9  O    0.047612   0.367378  -0.371806  -0.143130   0.092725   0.038420
    10  O   -0.395158   0.005274   0.274838   0.195952  -0.035420  -0.701595
    11  H    0.362500  -0.009463  -0.013946   0.024128   0.019086  -0.026530
    12  H    0.431208  -0.058274  -0.010619   0.014883  -0.013837   0.023351
    13  H   -0.008422   0.401434   0.038783  -0.058857   0.057765  -0.047685
    14  H    0.011040  -0.032930   0.320814  -0.032643   0.048008   0.005693
    15  H    0.018422  -0.011154   0.115466   0.266544  -0.037686   0.009202
    16  H    0.004986  -0.025555   0.044402  -0.063123   0.452179  -0.130811
    17  H    0.037458  -0.035942   0.056874  -0.058734   0.054035   0.314233
    18  O    0.012776  -0.053455   0.070810  -0.176383   0.408329  -0.228805
    19  C   -0.303578   0.135426  -0.056033   0.159268  -0.099821  -0.293195
    20  H    0.035134  -0.016793   0.003135  -0.005885  -0.001908   0.011262
    21  H   -0.005849   0.010821  -0.000569  -0.005967   0.011652  -0.022920
    22  H    0.001564   0.000110   0.003157  -0.000548  -0.011762   0.039671
    23  C    0.002455   0.041399  -0.021886  -0.032020  -0.249157   0.094935
    24  H    0.000699   0.002951  -0.002109  -0.036077   0.023835   0.016833
    25  H   -0.000858  -0.002724  -0.000770   0.072831  -0.089621   0.006808
    26  H    0.000312   0.000639   0.001287  -0.010320   0.046513  -0.013650
    27  C   -0.028818   0.011324  -0.151271  -0.294518   0.326968  -0.097482
    28  H    0.003046  -0.002607   0.032439  -0.056098   0.018794  -0.006207
    29  H   -0.003505   0.003330  -0.030774  -0.037235   0.032439   0.018272
    30  H    0.001387   0.000227  -0.004466   0.073737  -0.029117  -0.000659
    31  C   -0.220985   0.464491  -0.953881   0.469335  -0.120888   0.074184
    32  O    0.081813  -0.240396   0.207237  -0.044109   0.001341  -0.006876
    33  C   -0.044509  -0.222813   0.392647  -0.063747   0.002827  -0.055451
    34  H    0.002370  -0.003073   0.000802  -0.012229   0.001206   0.000231
    35  H   -0.000149   0.007199  -0.019431   0.013195  -0.001076   0.000212
    36  H   -0.000324   0.004002  -0.005377  -0.001098   0.000046  -0.000049
               7          8          9         10         11         12
     1  C    0.050539   0.194438   0.047612  -0.395158   0.362500   0.431208
     2  C    0.031292  -0.303118   0.367378   0.005274  -0.009463  -0.058274
     3  C    0.230355   0.268611  -0.371806   0.274838  -0.013946  -0.010619
     4  C   -0.248073  -0.525258  -0.143130   0.195952   0.024128   0.014883
     5  C    0.117927   0.369219   0.092725  -0.035420   0.019086  -0.013837
     6  C    0.067220  -0.152005   0.038420  -0.701595  -0.026530   0.023351
     7  O    7.708296   0.024954  -0.016672  -0.057535   0.002471   0.004534
     8  O    0.024954   8.195680   0.034774  -0.001727  -0.016821   0.002873
     9  O   -0.016672   0.034774   8.158861  -0.005077  -0.000423  -0.000176
    10  O   -0.057535  -0.001727  -0.005077   8.627319  -0.009417  -0.056072
    11  H    0.002471  -0.016821  -0.000423  -0.009417   0.346148  -0.018538
    12  H    0.004534   0.002873  -0.000176  -0.056072  -0.018538   0.424203
    13  H   -0.040341   0.000323  -0.001135   0.006414   0.002058  -0.003919
    14  H    0.004322   0.014631  -0.043472  -0.002841   0.000450  -0.000085
    15  H   -0.000356  -0.049174   0.000888   0.000870  -0.000507   0.000019
    16  H    0.009691   0.001521   0.000036   0.019374   0.000131   0.000033
    17  H   -0.042635   0.001256   0.000086  -0.033341   0.000025  -0.000152
    18  O    0.021890   0.017653  -0.000867   0.013699  -0.000095   0.000090
    19  C   -0.021469  -0.017254   0.001354   0.130040  -0.000593  -0.010984
    20  H   -0.000097   0.000314   0.000002  -0.040455  -0.000211   0.000524
    21  H    0.009461   0.000160  -0.000003  -0.055814   0.000240   0.002497
    22  H   -0.001824   0.000113   0.000021  -0.043207   0.000020   0.000189
    23  C    0.000186   0.003410  -0.000183  -0.024493  -0.000300   0.000006
    24  H    0.001603   0.000283   0.000023  -0.002922  -0.000003  -0.000001
    25  H   -0.000122  -0.000341  -0.000039   0.001015   0.000004   0.000000
    26  H   -0.000036   0.000072   0.000017   0.000116  -0.000000  -0.000000
    27  C    0.003746   0.098049   0.007062   0.008852   0.000550   0.000399
    28  H   -0.000057  -0.053086  -0.000212  -0.000107  -0.000286   0.000000
    29  H    0.000040  -0.033885   0.000392   0.000919   0.000196   0.000005
    30  H    0.000043  -0.071160  -0.000351  -0.000695  -0.000192  -0.000008
    31  C    0.014131   0.005221   0.254698  -0.004704   0.015107   0.002705
    32  O    0.014893   0.005160  -0.171335   0.004342  -0.019836   0.003947
    33  C    0.009823  -0.020463  -0.423492   0.009849   0.010325  -0.001379
    34  H   -0.000001  -0.000197  -0.001822   0.000038   0.000124   0.000003
    35  H   -0.000038   0.000141  -0.000040  -0.000006  -0.000022  -0.000002
    36  H   -0.000005   0.000083   0.016109  -0.000002  -0.000025  -0.000002
              13         14         15         16         17         18
     1  C   -0.008422   0.011040   0.018422   0.004986   0.037458   0.012776
     2  C    0.401434  -0.032930  -0.011154  -0.025555  -0.035942  -0.053455
     3  C    0.038783   0.320814   0.115466   0.044402   0.056874   0.070810
     4  C   -0.058857  -0.032643   0.266544  -0.063123  -0.058734  -0.176383
     5  C    0.057765   0.048008  -0.037686   0.452179   0.054035   0.408329
     6  C   -0.047685   0.005693   0.009202  -0.130811   0.314233  -0.228805
     7  O   -0.040341   0.004322  -0.000356   0.009691  -0.042635   0.021890
     8  O    0.000323   0.014631  -0.049174   0.001521   0.001256   0.017653
     9  O   -0.001135  -0.043472   0.000888   0.000036   0.000086  -0.000867
    10  O    0.006414  -0.002841   0.000870   0.019374  -0.033341   0.013699
    11  H    0.002058   0.000450  -0.000507   0.000131   0.000025  -0.000095
    12  H   -0.003919  -0.000085   0.000019   0.000033  -0.000152   0.000090
    13  H    0.383951  -0.003172   0.000073   0.000024   0.000368  -0.000062
    14  H   -0.003172   0.434971  -0.004926  -0.000250  -0.000603   0.002770
    15  H    0.000073  -0.004926   0.446630  -0.001923  -0.000157   0.013032
    16  H    0.000024  -0.000250  -0.001923   0.490418   0.000973  -0.037741
    17  H    0.000368  -0.000603  -0.000157   0.000973   0.435659   0.009286
    18  O   -0.000062   0.002770   0.013032  -0.037741   0.009286   7.881120
    19  C   -0.004447  -0.001322  -0.000264   0.005732  -0.004103   0.000455
    20  H    0.000039  -0.000002   0.000009  -0.000149   0.000271  -0.000189
    21  H   -0.000053   0.000003   0.000003  -0.000076   0.002359   0.000162
    22  H    0.000034  -0.000003   0.000000   0.000042   0.000437   0.000064
    23  C   -0.000216  -0.001449   0.004540  -0.004875  -0.002701   0.145904
    24  H    0.000002   0.000057   0.000074  -0.003971  -0.000295  -0.044487
    25  H   -0.000001  -0.000034  -0.000415   0.010492   0.000227  -0.033076
    26  H   -0.000001  -0.000024   0.000061   0.000260  -0.000011  -0.056549
    27  C    0.000327   0.003504  -0.015839   0.003819   0.000692  -0.008677
    28  H    0.000001  -0.000167   0.012790  -0.000366  -0.000007   0.000936
    29  H    0.000000   0.000104  -0.002490   0.005565   0.000042  -0.002254
    30  H   -0.000001   0.000006  -0.000325  -0.000332  -0.000005   0.000085
    31  C    0.004360  -0.001900  -0.001359  -0.000060  -0.000429   0.002484
    32  O   -0.009050  -0.000877  -0.000603  -0.000051   0.000078  -0.000297
    33  C    0.001084  -0.003814  -0.003383  -0.000017   0.000006  -0.000135
    34  H    0.000024   0.000028   0.000147   0.000000  -0.000000   0.000007
    35  H   -0.000034   0.000024  -0.000042  -0.000000   0.000000  -0.000001
    36  H   -0.000000   0.000034   0.000007  -0.000000  -0.000000   0.000000
              19         20         21         22         23         24
     1  C   -0.303578   0.035134  -0.005849   0.001564   0.002455   0.000699
     2  C    0.135426  -0.016793   0.010821   0.000110   0.041399   0.002951
     3  C   -0.056033   0.003135  -0.000569   0.003157  -0.021886  -0.002109
     4  C    0.159268  -0.005885  -0.005967  -0.000548  -0.032020  -0.036077
     5  C   -0.099821  -0.001908   0.011652  -0.011762  -0.249157   0.023835
     6  C   -0.293195   0.011262  -0.022920   0.039671   0.094935   0.016833
     7  O   -0.021469  -0.000097   0.009461  -0.001824   0.000186   0.001603
     8  O   -0.017254   0.000314   0.000160   0.000113   0.003410   0.000283
     9  O    0.001354   0.000002  -0.000003   0.000021  -0.000183   0.000023
    10  O    0.130040  -0.040455  -0.055814  -0.043207  -0.024493  -0.002922
    11  H   -0.000593  -0.000211   0.000240   0.000020  -0.000300  -0.000003
    12  H   -0.010984   0.000524   0.002497   0.000189   0.000006  -0.000001
    13  H   -0.004447   0.000039  -0.000053   0.000034  -0.000216   0.000002
    14  H   -0.001322  -0.000002   0.000003  -0.000003  -0.001449   0.000057
    15  H   -0.000264   0.000009   0.000003   0.000000   0.004540   0.000074
    16  H    0.005732  -0.000149  -0.000076   0.000042  -0.004875  -0.003971
    17  H   -0.004103   0.000271   0.002359   0.000437  -0.002701  -0.000295
    18  O    0.000455  -0.000189   0.000162   0.000064   0.145904  -0.044487
    19  C    5.442288   0.386183   0.419522   0.384012  -0.012036  -0.002839
    20  H    0.386183   0.443705  -0.020979  -0.011074  -0.000349   0.000061
    21  H    0.419522  -0.020979   0.440157  -0.020479   0.000045   0.000016
    22  H    0.384012  -0.011074  -0.020479   0.440596   0.000123  -0.000000
    23  C   -0.012036  -0.000349   0.000045   0.000123   5.123810   0.410847
    24  H   -0.002839   0.000061   0.000016  -0.000000   0.410847   0.540626
    25  H    0.001029  -0.000010  -0.000001  -0.000000   0.399512  -0.042828
    26  H    0.000084   0.000000  -0.000000   0.000000   0.409153  -0.021838
    27  C   -0.003970  -0.000052   0.000137  -0.000158  -0.006287  -0.000106
    28  H   -0.000025   0.000000  -0.000000  -0.000000   0.001326   0.000004
    29  H    0.000844  -0.000007  -0.000000   0.000001  -0.003166   0.000008
    30  H   -0.000293  -0.000002  -0.000000  -0.000001   0.000080   0.000001
    31  C   -0.006352   0.000086   0.000256  -0.000342  -0.000323   0.000101
    32  O    0.000173   0.000035   0.000003   0.000077  -0.000189   0.000000
    33  C   -0.000104   0.000007  -0.000033  -0.000052   0.000066   0.000004
    34  H    0.000026  -0.000000   0.000000   0.000000  -0.000002   0.000000
    35  H   -0.000003  -0.000000   0.000000  -0.000000   0.000001   0.000000
    36  H   -0.000006   0.000000  -0.000000  -0.000000   0.000000   0.000000
              25         26         27         28         29         30
     1  C   -0.000858   0.000312  -0.028818   0.003046  -0.003505   0.001387
     2  C   -0.002724   0.000639   0.011324  -0.002607   0.003330   0.000227
     3  C   -0.000770   0.001287  -0.151271   0.032439  -0.030774  -0.004466
     4  C    0.072831  -0.010320  -0.294518  -0.056098  -0.037235   0.073737
     5  C   -0.089621   0.046513   0.326968   0.018794   0.032439  -0.029117
     6  C    0.006808  -0.013650  -0.097482  -0.006207   0.018272  -0.000659
     7  O   -0.000122  -0.000036   0.003746  -0.000057   0.000040   0.000043
[...]
 0005178,0.00005242,0.00010442,0.00011187,0.00010680,-0.00001170,-0.000
 82098,-0.00098377,0.00012593,0.00017929,0.00012759,0.00006299,0.000029
 07,0.00011863,-0.00005672,0.00007485,0.00005903,-0.00014560,0.00178086
 ,-0.00249809,-0.00012672,0.00007056,-0.00008943,-0.00002566,-0.0001041
 2,0.00056676,0.00020051,-0.00021895,0.00030057,-0.20559186,0.05560428,
 0.38855754,0.00006695,0.00611029,0.00146014,-0.00534056,0.00243257,0.0
 0228660,-0.00646926,-0.01766230,-0.00782786,-0.00119402,0.00418290,-0.
 00101282,0.00063383,-0.00185344,0.00143005,-0.00469880,0.00062869,0.00
 018402,0.00419189,0.00100934,-0.00071031,0.00231639,-0.00069190,0.0000
 8154,-0.07251563,0.01773734,0.06857935,0.00135702,-0.00615408,-0.00462
 094,-0.00011163,-0.00199651,0.00035421,0.00080915,0.00061859,0.0004267
 8,-0.00023590,0.00141613,0.00023793,0.00104354,0.00183755,0.00017125,0
 .00033318,-0.00004372,-0.00086957,0.00018808,0.00073173,0.00038998,0.0
 0054316,0.00006638,-0.00019678,0.00047059,0.00064783,0.00014994,0.0009
 5073,-0.00005528,-0.00052509,-0.00026565,-0.00017542,-0.00002355,-0.00
 013270,0.00002517,0.00006095,0.00017128,0.00015103,0.00017682,-0.00001
 652,-0.00035931,-0.00030789,0.00006282,0.00011918,0.00006000,0.0000071
 1,0.00002053,0.00003462,-0.00002165,0.00001684,0.00000560,-0.00004734,
 -0.00018182,-0.00032818,0.00011093,0.00017293,-0.00021982,0.00002939,0
 .00007411,-0.00002582,0.00008514,-0.00018122,0.00027648,-0.56123426,-0
 .24575456,0.16078840,0.65810314,0.00131070,0.00021746,-0.00002024,-0.0
 0188897,-0.00105540,0.00597873,-0.00205875,-0.00209647,0.00273604,0.00
 070577,0.00153366,-0.00000026,-0.00049550,-0.00053538,0.00093858,-0.00
 030295,-0.00120075,0.00232476,0.00130115,-0.00227655,-0.00592611,0.000
 29821,0.00094599,-0.00047681,0.01097891,0.03514534,-0.00233589,-0.0020
 4432,-0.00285054,-0.00240849,-0.00062157,-0.00229527,-0.00165435,0.000
 33247,0.00028098,0.00013055,0.00009576,-0.00239125,-0.00361402,0.00064
 696,0.00146515,0.00007775,-0.00009200,0.00011533,-0.00043443,0.0001689
 3,0.00025679,-0.00003576,-0.00008503,0.00011944,-0.00054836,0.00057877
 ,0.00017094,-0.00048353,0.00133303,0.00040023,-0.00046120,-0.00018666,
 -0.00020790,-0.00000455,-0.00006531,0.00000663,0.00002203,0.00006419,-
 0.00000777,0.00009679,-0.00008155,0.00009714,0.00032987,0.00001383,0.0
 0005920,0.00000600,-0.00002914,0.00001058,-0.00005611,0.00001774,-0.00
 000735,-0.00000748,-0.00004322,-0.00058026,0.00033325,0.00015844,0.000
 05273,-0.00019929,0.00003333,0.00012282,-0.00001464,-0.00010415,-0.000
 04245,-0.00003751,-0.22486675,-0.22330598,0.05943241,0.26384744,0.2133
 9644,-0.00234029,-0.00230673,-0.00459533,-0.00079344,0.00131657,-0.003
 85023,-0.00002272,0.01016413,0.00282648,-0.00044729,-0.00114767,0.0006
 3854,-0.00032441,0.00074352,-0.00021643,0.00029626,0.00026165,0.000154
 38,-0.00023921,-0.00142934,0.00108356,-0.00034795,0.00073675,-0.001399
 53,0.06413442,-0.00387774,-0.01292306,-0.00123224,-0.00180381,0.000249
 90,-0.00031602,-0.00306664,-0.00228480,-0.00057157,-0.00060220,-0.0000
 2319,0.00055569,-0.00148450,0.00032692,-0.00028392,-0.00032759,-0.0001
 7156,-0.00002753,-0.00002088,0.00025374,-0.00006381,-0.00023446,-0.000
 11542,0.00002790,-0.00006250,0.00002268,0.00024696,-0.00061012,-0.0005
 3889,0.00074639,0.00026668,-0.00025233,-0.00009782,-0.00009066,0.00000
 865,-0.00002946,-0.00005468,-0.00002698,0.00001330,0.00001572,-0.00001
 098,0.00001152,0.00032227,0.00043801,-0.00005312,-0.00004977,-0.000043
 75,-0.00002877,-0.00001085,-0.00004446,0.00002713,-0.00002937,-0.00003
 121,0.00006523,-0.00085110,0.00079011,0.00009335,0.00001559,-0.0000576
 0,0.00002123,0.00007718,-0.00023979,-0.00006904,0.00004328,-0.00004446
 ,0.17384327,0.07116078,-0.14652427,-0.23338719,-0.06128313,0.14555354,
 0.00048205,0.00075983,0.00081694,-0.00081446,0.00031389,0.00133264,-0.
 00135462,0.00195430,0.00324783,-0.00017240,0.00109081,-0.00004066,0.00
 007795,-0.00033624,0.00036963,-0.00034793,-0.00011554,0.00017498,0.000
 47558,-0.00000226,-0.00080823,0.00019487,-0.00011313,-0.00010876,0.009
 74649,0.02119216,0.01285855,-0.00009221,-0.00047328,-0.00054757,0.0000
 8042,0.00006425,0.00015834,0.00013393,0.00009026,0.00005443,-0.0000778
 6,0.00023572,-0.00029793,-0.00000441,0.00035378,0.00032463,0.00000750,
 0.00001103,-0.00006693,0.00003579,0.00013935,0.00004628,0.00000543,0.0
 0001283,-0.00006984,0.00009238,0.00002377,-0.00007956,0.00017425,0.000
 05025,-0.00004935,-0.00002580,-0.00002630,-0.00000432,-0.00001012,0.00
 000662,0.00000782,0.00001828,0.00000902,0.00001944,-0.00000156,-0.0000
 1774,0.00002179,0.00000582,0.00001090,0.00000452,-0.00000573,0.0000062
 5,-0.00000374,-0.00000041,0.00000052,-0.00000108,-0.00000414,-0.000072
 70,0.00007875,-0.00000197,0.00001684,-0.00001768,0.00001032,-0.0000031
 5,-0.00002285,0.00001941,-0.00000884,0.00004574,-0.09607759,-0.0381620
 7,-0.02008474,-0.01816476,-0.04482593,0.00493719,0.57858969,-0.0000198
 0,0.00036933,0.00010378,-0.00009283,0.00039875,-0.00016553,0.00095492,
 0.00486709,-0.00016643,0.00001631,-0.00127756,-0.00011937,-0.00027293,
 0.00037831,-0.00024944,0.00007798,0.00003606,0.00014808,-0.00006764,-0
 .00015199,-0.00004201,-0.00013756,0.00038994,-0.00020901,-0.00132705,-
 0.02991525,-0.02030048,-0.00021405,-0.00039417,-0.00025918,0.00017956,
 -0.00015767,0.00016265,-0.00002735,-0.00000619,-0.00000179,-0.00005217
 ,0.00005719,0.00006130,0.00003600,-0.00018220,-0.00012383,-0.00001323,
 0.00002760,0.00005765,-0.00002952,-0.00014462,-0.00006634,-0.00000516,
 -0.00001977,0.00000741,0.00014368,-0.00019267,-0.00020925,0.00024147,0
 .00011523,-0.00003221,-0.00001471,-0.00002189,0.00000085,-0.00001047,0
 .00000005,0.00000171,0.00001060,-0.00000282,0.00001883,-0.00000388,0.0
 0011878,0.00017984,-0.00001664,-0.00000992,-0.00001615,-0.00001427,-0.
 00000377,-0.00001935,0.00001212,-0.00001451,-0.00001038,-0.00000329,-0
 .00021279,0.00024648,0.00003271,0.00000434,-0.00001033,0.00000468,0.00
 000458,-0.00003684,-0.00002994,0.00001616,-0.00002805,-0.03906269,-0.1
 9415091,-0.03183540,-0.02306494,-0.00898506,-0.00573373,-0.03125197,0.
 51180576,0.00005207,-0.00095139,-0.00005108,0.00094820,-0.00057581,-0.
 00055222,0.00405432,-0.00231791,0.00254671,0.00048178,0.00019074,0.000
 50962,0.00004245,0.00008651,0.00004168,0.00057526,-0.00011786,0.000201
 61,-0.00072894,-0.00033252,-0.00012458,-0.00029052,0.00034069,-0.00013
 360,-0.00098764,-0.03374028,-0.00913563,-0.00013760,0.00073639,0.00046
 124,-0.00019156,0.00024965,-0.00016472,-0.00008507,-0.00000311,-0.0000
 6270,-0.00005254,0.00000612,-0.00009050,-0.00045919,-0.00124938,-0.000
 66165,-0.00002350,0.00002336,-0.00002537,-0.00001307,-0.00002560,-0.00
 002589,-0.00006571,0.00000604,-0.00001274,-0.00005579,-0.00004523,-0.0
 0005698,-0.00009546,0.00002728,0.00007262,0.00003364,0.00001937,0.0000
 0052,0.00001392,0.00000252,-0.00000323,-0.00001671,-0.00001714,-0.0000
 1226,-0.00001916,0.00006033,0.00004816,-0.00000480,-0.00001145,-0.0000
 0719,-0.00000077,-0.00000578,-0.00001583,0.00000310,-0.00000070,0.0000
 0142,-0.00008174,-0.00004683,0.00007031,0.00003063,-0.00001564,-0.0000
 1526,0.00001944,0.00002426,0.00000049,-0.00002573,0.00001179,-0.000037
 03,-0.02106461,-0.03431980,-0.09749030,0.01645269,0.00695592,0.0202582
 5,-0.03839073,0.01049402,0.57039109,0.00001361,0.00011450,0.00004338,-
 0.00010688,0.00010829,0.00004187,-0.00021466,-0.00007480,-0.00016999,0
 .00020743,-0.00012206,0.00000561,-0.00001123,-0.00001502,0.00000349,-0
 .00001651,-0.00001201,0.00000527,0.00003968,-0.00000784,-0.00001065,-0
 .00010044,0.00021183,0.00012453,-0.00025159,0.00148500,0.00050611,-0.0
 0003352,-0.00009651,-0.00007600,0.00001946,-0.00010424,0.00002181,0.00
 000197,0.00001393,0.00000998,-0.00000652,-0.00002334,0.00000134,0.0000
 4099,0.00008945,-0.00001106,-0.00001669,0.00001824,0.00003179,-0.00000
 365,-0.00000460,-0.00000452,0.00000671,-0.00000016,-0.00000223,-0.0000
 3180,0.00004078,0.00002629,0.00001863,-0.00000571,-0.00001374,-0.00000
 526,-0.00000615,0.00000039,-0.00000305,-0.00000020,-0.00000068,-0.0000
 0037,-0.00000279,0.00000304,0.00000023,-0.00000819,-0.00001321,-0.0000
 0084,-0.00000013,0.00000267,0.00000383,0.00000088,0.00000085,-0.000000
 15,0.00000503,0.00000156,0.00007777,0.00001525,-0.00007765,0.00003085,
 -0.00001891,-0.00001423,-0.00001614,0.00003598,0.00001737,-0.00005920,
 -0.00002307,-0.00004795,-0.00282083,-0.00880058,0.01226703,-0.00242566
 ,-0.00188000,-0.00306084,-0.03797234,-0.00465246,0.00933391,0.04228213
 ,0.00001180,0.00023861,0.00006973,-0.00014476,0.00029576,0.00019953,-0
 .00036232,0.00042691,-0.00111559,0.00002669,-0.00059002,0.00000018,-0.
 00004698,0.00003035,-0.00010717,-0.00009865,0.00001411,0.00005995,0.00
 012312,0.00001963,-0.00007459,0.00009104,0.00031479,0.00016486,-0.0003
 8341,0.00074722,-0.00193751,0.00000086,-0.00018105,-0.00015449,0.00002
 958,-0.00011406,0.00006576,0.00001628,0.00001430,0.00001315,0.00000342
 ,0.00001818,0.00000028,0.00003625,0.00014464,0.00007264,0.00001572,-0.
 00000339,-0.00003503,-0.00000767,-0.00003451,-0.00001739,0.00001738,0.
 00000464,-0.00001314,0.00000845,0.00005852,0.00001442,0.00002538,-0.00
 000801,-0.00002329,-0.00001006,-0.00000842,-0.00000032,-0.00000266,0.0
 0000210,0.00000180,0.00000344,0.00000227,0.00000568,-0.00000159,-0.000
 02035,-0.00001681,0.00000371,0.00000681,0.00000269,0.00000039,-0.00000
 043,0.00000030,-0.00000070,0.00000009,0.00000154,-0.00009795,-0.000051
 58,-0.00009039,0.00003805,0.00001143,-0.00008473,0.00002461,0.00004617
 ,0.00002218,-0.00001343,0.00000355,-0.00002248,0.00112600,-0.01740052,
 0.02923110,-0.00293529,-0.00168799,-0.00415685,-0.00401538,-0.14072279
 ,0.13014449,0.00730592,0.15053424,0.00000647,0.00009758,0.00004944,-0.
 00000600,0.00008588,-0.00002002,-0.00010110,0.00074407,-0.00002272,0.0
 0004905,-0.00032173,0.00003657,-0.00002961,0.00004199,-0.00005918,-0.0
 0000981,0.00000736,0.00003982,-0.00000054,-0.00004522,-0.00003619,-0.0
 0000428,0.00022741,0.00001144,0.00003848,-0.00128930,-0.00089027,-0.00
 002358,-0.00008556,-0.00007619,0.00001805,-0.00000930,0.00003286,-0.00
 000189,0.00000240,-0.00000036,0.00000094,0.00001931,0.00000508,0.00000
 704,0.00001601,0.00000727,0.00000831,-0.00000105,-0.00000164,-0.000010
 75,-0.00002716,-0.00001927,0.00000303,0.00000011,-0.00000423,0.0000121
 3,-0.00000022,-0.00002096,0.00002656,0.00000980,-0.00001062,-0.0000045
 7,-0.00000461,0.00000028,-0.00000077,0.00000069,0.00000056,0.00000166,
 0.00000124,0.00000292,0.00000028,0.00000528,0.00001546,-0.00000028,0.0
 0000120,-0.00000128,-0.00000141,-0.00000066,-0.00000266,0.00000072,-0.
 00000157,-0.00000091,-0.00009774,-0.00010046,0.00007905,0.00006091,0.0
 0000186,-0.00005147,0.00002865,0.00004113,-0.00000249,-0.00001734,0.00
 000267,-0.00001046,0.00308026,-0.00491396,0.00914698,-0.00305593,-0.00
 051013,-0.00073318,0.00797842,0.12904855,-0.22448262,-0.00769683,-0.14
 195079,0.24071669,0.00003099,0.00008490,0.00005896,-0.00005936,0.00006
 653,0.00016011,0.00031605,-0.00084670,0.00007918,0.00002367,0.00023558
 ,0.00002776,0.00003036,-0.00006839,0.00005824,-0.00005905,-0.00001226,
 -0.00000455,0.00005968,0.00000533,-0.00005354,0.00003185,-0.00004197,0
 .00002811,0.00066076,0.00167757,0.00133323,0.00001585,-0.00003921,-0.0
 0003424,-0.00000722,-0.00000151,0.00000441,0.00001093,0.00001054,0.000
 00492,-0.00001812,-0.00002367,-0.00005582,-0.00002015,-0.00000109,-0.0
 0004588,0.00000574,-0.00000428,-0.00001057,0.00000666,0.00002753,0.000
 01383,0.00000362,0.00000348,-0.00000712,-0.00001090,0.00002631,0.00002
 677,-0.00000609,-0.00000794,-0.00000631,-0.00000229,-0.00000095,-0.000
 00039,-0.00000005,0.00000018,0.00000026,0.00000095,0.00000218,0.000000
 06,-0.00000072,-0.00001422,-0.00002311,0.00000134,0.00000204,0.0000028
 6,0.00000220,0.00000115,0.00000231,-0.00000040,0.00000289,0.00000146,-
 0.00000192,0.00003390,-0.00004391,-0.00000407,0.00000022,0.00000298,0.
 00000016,-0.00000356,0.00000472,0.00000599,-0.00000416,0.00000861,-0.0
 1343355,0.00096010,-0.00212862,0.00111146,-0.00252962,-0.00103075,-0.2
 8821887,0.02798325,-0.08883638,0.00183180,-0.00020631,0.00152804,0.310
 65052,0.00011752,0.00013779,0.00022269,-0.00011781,0.00017575,0.000284
 44,0.00037166,-0.00014269,0.00048483,0.00001530,0.00019152,0.00007311,
 0.00000754,-0.00005002,0.00006369,-0.00004534,-0.00002501,0.00003345,0
 .00007143,-0.00005278,-0.00018168,0.00002250,0.00002263,-0.00001326,0.
 00136341,-0.00082573,0.00086321,-0.00002450,-0.00007540,-0.00010493,0.
 00001828,0.00001290,0.00001967,0.00002570,0.00002259,0.00001142,-0.000
 06454,0.00000904,-0.00007542,-0.00007435,-0.00014666,-0.00007985,-0.00
 000478,0.00000523,-0.00001868,0.00000689,0.00001689,0.00000711,-0.0000
 0237,0.00000299,-0.00001587,0.00001390,0.00001489,0.00000403,0.0000274
 2,0.00000523,-0.00001176,-0.00000511,-0.00000560,-0.00000109,-0.000002
 25,0.00000105,0.00000055,0.00000210,-0.00000021,0.00000279,-0.00000107
 ,-0.00000765,-0.00001060,0.00000013,0.00000244,0.00000106,0.00000075,-
 0.00000079,0.00000048,0.00000056,0.00000120,-0.00000196,0.00001562,-0.
 00002597,0.00000716,0.00001217,-0.00000258,-0.00001270,-0.00000138,0.0
 0001505,-0.00000295,-0.00001377,-0.00000799,-0.00000953,-0.03124709,0.
 00797145,-0.01203384,-0.00107641,-0.00757699,0.00194635,0.02844253,-0.
 04680840,0.00472576,0.01893425,-0.00161505,0.00592902,-0.02778793,0.05
 063135,0.00001909,0.00006012,0.00003724,-0.00003223,0.00007330,0.00014
 144,0.00028571,-0.00003253,0.00001547,-0.00012851,0.00005802,0.0000489
 8,0.00000842,-0.00000681,0.00000964,-0.00004871,0.00000414,0.00003298,
 0.00004119,0.00002261,-0.00006905,0.00006782,-0.00004131,-0.00004799,0
 .00114522,-0.00139960,-0.00005872,0.00001477,-0.00003996,-0.00004730,0
 .00002409,0.00002324,0.00002275,0.00001909,0.00000046,0.00000728,-0.00
 000399,0.00002940,-0.00000599,-0.00005884,-0.00009594,-0.00001277,0.00
 000399,-0.00000988,-0.00004320,0.00000317,0.00000695,0.00000184,0.0000
 0279,0.00000143,-0.00000575,0.00003183,0.00000076,-0.00001720,0.000010
 68,-0.00000141,-0.00000380,-0.00000245,-0.00000145,-0.00000051,-0.0000
 0116,0.00000144,0.00000192,0.00000248,0.00000119,0.00000249,-0.0000007
 6,-0.00000731,0.00000159,0.00000292,0.00000347,-0.00000074,-0.00000270
 ,-0.00000089,-0.00000082,-0.00000100,-0.00000385,-0.00000123,-0.000029
 18,-0.00004586,0.00005435,-0.00000665,0.00001562,0.00000424,0.00000346
 ,-0.00000583,-0.00001013,0.00002078,0.00000631,0.00001186,-0.00665413,
 0.00508025,-0.00456535,0.00020531,-0.00032578,0.00060523,-0.08762695,0
 .00415541,-0.07421991,-0.02453727,0.00142367,-0.00878531,0.09604767,-0
 .00844239,0.07709327,-0.00000262,-0.00003506,-0.00001610,0.00010331,0.
 00004763,-0.00004804,0.00082001,-0.00066776,0.00001064,0.00002153,-0.0
 0001795,0.00012881,-0.00000357,0.00002355,-0.00000902,0.00005710,-0.00
 000342,0.00002899,-0.00007645,-0.00003758,-0.00000433,-0.00004257,0.00
 005816,-0.00004951,0.00014052,-0.00332583,-0.00105134,-0.00003253,0.00
 002314,0.00001674,0.00001800,-0.00001054,-0.00000902,-0.00000472,-0.00
 001286,-0.00000478,-0.00000297,0.00000118,0.00001161,-0.00007127,-0.00
 023180,-0.00014143,-0.00000500,-0.00000372,-0.00001730,-0.00000217,-0.
 00001020,-0.00000824,-0.00000395,-0.00000107,-0.00000083,0.00000025,-0
 .00000399,-0.00001077,0.00000944,0.00000369,0.00000060,-0.00000050,-0.
 00000064,0.00000070,-0.00000008,-0.00000088,-0.00000047,-0.00000133,-0
 .00000336,-0.00000170,-0.00000275,0.00000700,0.00000699,0.00000042,-0.
 00000084,-0.00000130,-0.00000086,-0.00000131,-0.00000284,0.00000011,-0
 .00000169,-0.00000036,-0.00000687,-0.00003698,0.00003425,0.00000181,0.
 00000344,-0.00000494,0.00000074,0.00000629,-0.00000528,-0.00000222,0.0
 0000515,-0.00001127,0.00652088,-0.00472574,-0.01090984,0.00028856,0.00
 031578,-0.00025246,-0.14680297,0.07069127,0.11958579,-0.00047778,-0.00
 058096,-0.00178655,-0.01295782,0.01099903,0.02117405,0.15251830,-0.000
 03478,-0.00016670,-0.00007586,0.00030603,-0.00001559,-0.00032726,0.000
 75100,0.00016064,-0.00034927,0.00008096,-0.00046189,0.00008550,-0.0000
 6149,0.00014911,-0.00011928,0.00017652,0.00000015,0.00004262,-0.000224
 76,-0.00015808,0.00006060,-0.00008770,0.00015210,-0.00007015,-0.002290
 31,-0.00698206,-0.00349768,-0.00006166,0.00011615,0.00010280,0.0000031
 4,0.00001615,-0.00002436,-0.00003726,-0.00002238,-0.00002593,-0.000001
 08,-0.00002334,0.00001420,-0.00007802,-0.00026785,-0.00015433,0.000000
 17,0.00000164,0.00000091,-0.00001369,-0.00006010,-0.00002955,-0.000012
 80,-0.00000454,0.00000352,0.00000638,-0.00004184,-0.00003339,0.0000064
 3,0.00002212,0.00001071,0.00000513,0.00000214,0.00000145,0.00000314,-0
 .00000213,-0.00000303,-0.00000467,-0.00000446,-0.00000447,-0.00000219,
 0.00003242,0.00003514,-0.00000394,-0.00000463,-0.00000496,-0.00000266,
 -0.00000379,-0.00000583,0.00000236,-0.00000368,-0.00000163,-0.00005731
 ,-0.00007185,0.00006776,0.00001845,-0.00000124,-0.00002710,0.00001463,
 0.00001598,-0.00000665,-0.00000837,0.00001314,-0.00001664,0.02115072,-
 0.01097048,-0.02111836,0.00033962,0.00270651,0.00216386,0.06463963,-0.
 09521424,-0.08032880,-0.01252056,0.00950385,0.01297816,0.00047005,-0.0
 0187048,-0.00050699,-0.07247112,0.10345927,-0.00002194,-0.00007668,-0.
 00003305,0.00012868,-0.00007783,-0.00012825,0.00053609,0.00015470,0.00
 085876,0.00004204,0.00009870,0.00007065,-0.00000643,0.00002692,0.00002
 481,0.00008180,-0.00001716,0.00002491,-0.00011581,-0.00007800,0.000005
 02,-0.00008274,0.00001821,-0.00005664,-0.00051408,-0.00202897,0.000122
 38,-0.00004083,0.00004680,0.00002914,0.00000785,-0.00002218,-0.0000194
 9,-0.00000963,-0.00000837,-0.00000486,0.00000573,-0.00001051,0.0000133
 8,-0.00006774,-0.00016759,-0.00009039,-0.00001413,0.00000977,0.0000145
 1,-0.00000057,-0.00000301,-0.00000385,-0.00000638,-0.00000276,0.000000
 86,-0.00000334,-0.00001956,-0.00001949,0.00001022,0.00000790,0.0000063
 8,0.00000201,0.00000007,0.00000084,-0.00000040,-0.00000053,-0.00000045
 ,-0.00000221,-0.00000478,-0.00000036,-0.00000147,0.00001322,0.00001691
 ,-0.00000152,-0.00000298,-0.00000171,-0.00000060,-0.00000010,-0.000002
 90,0.00000059,-0.00000073,-0.00000064,0.00005260,-0.00001197,0.0000374
 7,-0.00000735,-0.00000270,0.00002374,-0.00001339,-0.00000266,-0.000005
 95,-0.00001057,-0.00000074,-0.00001667,0.00548771,-0.00006696,-0.00742
 117,-0.00070093,0.00147540,0.00091748,0.11574297,-0.08505146,-0.187222
 43,0.01328853,-0.01169340,-0.01491235,-0.00711330,0.00633568,0.0098032
 2,-0.12665146,0.09116427,0.19797021\\-0.00000654,0.00000196,-0.0000075
 8,0.,-0.00000991,-0.00000019,-0.00000223,-0.00000050,0.00000231,-0.000
 00172,0.00000333,0.00000150,-0.00000062,-0.00000561,0.00000036,-0.0000
 0979,0.00000173,-0.00000544,-0.00000527,0.00000137,0.00000871,0.000008
 90,-0.00000079,0.00000084,0.00000082,-0.00001136,0.00000623,-0.0000023
 3,0.00001777,-0.00000442,0.00000033,0.00000542,-0.00000318,-0.00000796
 ,0.00000667,-0.00000486,-0.00000692,-0.00000445,-0.00000037,-0.0000019
 7,-0.00000907,0.00000183,0.00000670,-0.00000580,0.00000334,-0.00000002
 ,0.00000339,-0.00000139,-0.00000886,0.00000322,-0.00000423,-0.00000003
 ,-0.00000121,-0.00000185,-0.00001286,0.00000203,-0.00001040,-0.0000063
 9,0.00001405,-0.00000904,-0.00001017,0.00001085,-0.00000721,-0.0000053
 1,0.00001376,-0.00000737,-0.00000362,-0.00000235,0.00000476,-0.0000084
 9,-0.00000130,-0.00000311,-0.00000006,-0.00000097,-0.00000013,-0.00000
 509,-0.00000845,0.00000274,0.00001140,0.00000100,0.00000252,0.00001508
 ,-0.00000017,0.00000378,0.00001043,0.00000401,0.00000055,0.00001389,0.
 00000686,0.00000181,0.00001042,-0.00000030,0.00000014,-0.00000522,-0.0
 0000419,0.00000327,0.00000844,-0.00000747,0.00000373,0.00001129,-0.000
 00646,0.00000724,0.00000666,-0.00001143,0.00000882,0.00000713,-0.00000
 563,0.00000629\\\@


 IT IS A QUALITY OF REVOLUTIONS NOT TO GO BY OLD LINES OR OLD LAWS,
 BUT TO BREAK UP BOTH, AND MAKE NEW ONES.
                                              -- A. LINCOLN (1848)
 Job cpu time:       0 days  7 hours 18 minutes 29.2 seconds.
 File lengths (MBytes):  RWF=    766 Int=      0 D2E=      0 Chk=     19 Scr=      1
 Normal termination of Gaussian 09 at Tue Jan 10 12:29:38 2017.
