 Entering Gaussian System, Link 0=g09
 Initial command:
 /share/apps//g09/l1.exe "/scratch/Gau-14725.inp" -scrdir="/scratch/"
 Entering Link 1 = /share/apps//g09/l1.exe PID=     14726.
  
 Copyright (c) 1988,1990,1992,1993,1995,1998,2003,2009,2013,
            Gaussian, Inc.  All Rights Reserved.
  
 This is part of the Gaussian(R) 09 program.  It is based on
 the Gaussian(R) 03 system (copyright 2003, Gaussian, Inc.),
 the Gaussian(R) 98 system (copyright 1998, Gaussian, Inc.),
 the Gaussian(R) 94 system (copyright 1995, Gaussian, Inc.),
 the Gaussian 92(TM) system (copyright 1992, Gaussian, Inc.),
 the Gaussian 90(TM) system (copyright 1990, Gaussian, Inc.),
 the Gaussian 88(TM) system (copyright 1988, Gaussian, Inc.),
 the Gaussian 86(TM) system (copyright 1986, Carnegie Mellon
 University), and the Gaussian 82(TM) system (copyright 1983,
 Carnegie Mellon University). Gaussian is a federally registered
 trademark of Gaussian, Inc.
  
 This software contains proprietary and confidential information,
 including trade secrets, belonging to Gaussian, Inc.
  
 This software is provided under written license and may be
 used, copied, transmitted, or stored only in accord with that
 written license.
  
 The following legend is applicable only to US Government
 contracts under FAR:
  
                    RESTRICTED RIGHTS LEGEND
  
 Use, reproduction and disclosure by the US Government is
 subject to restrictions as set forth in subparagraphs (a)
 and (c) of the Commercial Computer Software - Restricted
 Rights clause in FAR 52.227-19.
  
 Gaussian, Inc.
 340 Quinnipiac St., Bldg. 40, Wallingford CT 06492
  
  
 ---------------------------------------------------------------
 Warning -- This program may not be used in any manner that
 competes with the business of Gaussian, Inc. or will provide
 assistance to any competitor of Gaussian, Inc.  The licensee
 of this program is prohibited from giving any competitor of
 Gaussian, Inc. access to this program.  By using this program,
 the user acknowledges that Gaussian, Inc. is engaged in the
 business of creating and licensing software in the field of
 computational chemistry and represents and warrants to the
 licensee that it is not a competitor of Gaussian, Inc. and that
 it will not use this program in any manner prohibited above.
 ---------------------------------------------------------------
  

 Cite this work as:
 Gaussian 09, Revision D.01,
 M. J. Frisch, G. W. Trucks, H. B. Schlegel, G. E. Scuseria, 
 M. A. Robb, J. R. Cheeseman, G. Scalmani, V. Barone, B. Mennucci, 
 G. A. Petersson, H. Nakatsuji, M. Caricato, X. Li, H. P. Hratchian, 
 A. F. Izmaylov, J. Bloino, G. Zheng, J. L. Sonnenberg, M. Hada, 
 M. Ehara, K. Toyota, R. Fukuda, J. Hasegawa, M. Ishida, T. Nakajima, 
 Y. Honda, O. Kitao, H. Nakai, T. Vreven, J. A. Montgomery, Jr., 
 J. E. Peralta, F. Ogliaro, M. Bearpark, J. J. Heyd, E. Brothers, 
 K. N. Kudin, V. N. Staroverov, T. Keith, R. Kobayashi, J. Normand, 
 K. Raghavachari, A. Rendell, J. C. Burant, S. S. Iyengar, J. Tomasi, 
 M. Cossi, N. Rega, J. M. Millam, M. Klene, J. E. Knox, J. B. Cross, 
 V. Bakken, C. Adamo, J. Jaramillo, R. Gomperts, R. E. Stratmann, 
 O. Yazyev, A. J. Austin, R. Cammi, C. Pomelli, J. W. Ochterski, 
 R. L. Martin, K. Morokuma, V. G. Zakrzewski, G. A. Voth, 
 P. Salvador, J. J. Dannenberg, S. Dapprich, A. D. Daniels, 
 O. Farkas, J. B. Foresman, J. V. Ortiz, J. Cioslowski, 
 and D. J. Fox, Gaussian, Inc., Wallingford CT, 2013.
 
 ******************************************
 Gaussian 09:  EM64L-G09RevD.01 24-Apr-2013
                 6-Jul-2017 
 ******************************************
 %nproc=20
 Will use up to   20 processors via shared memory.
 %mem=100GB
 %chk=Ac-4_cGalMe.chk
 -------------------------------------------------------------------
 #P PBE1PBE/6-311+G(d,p) opt optcyc=999 freq EmpiricalDispersion=GD3
 -------------------------------------------------------------------
 1/6=999,14=-1,18=20,19=15,26=3,38=1/1,3;
 2/9=110,12=2,17=6,18=5,40=1/2;
 3/5=4,6=6,7=111,11=2,16=1,25=1,30=1,71=1,74=-13,124=31/1,2,3;
 4//1;
 5/5=2,38=5/2;
 6/7=2,8=2,9=2,10=2,28=1/1;
 7//1,2,3,16;
 1/6=999,14=-1,18=20,19=15,26=3/3(2);
 2/9=110/2;
 99//99;
 2/9=110/2;
 3/5=4,6=6,7=111,11=2,16=1,25=1,30=1,71=1,74=-13,124=31/1,2,3;
 4/5=5,16=3,69=1/1;
 5/5=2,38=5/2;
 7//1,2,3,16;
 1/6=999,14=-1,18=20,19=15,26=3/3(-5);
 2/9=110/2;
 6/7=2,8=2,9=2,10=2,19=2,28=1/1;
 99/9=1/99;
 Leave Link    1 at Thu Jul  6 15:18:50 2017, MaxMem= 13421772800 cpu:         1.8
 (Enter /share/apps//g09/l101.exe)
 -------
 disacch
 -------
 Symbolic Z-matrix:
 Charge =  1 Multiplicity = 1
 6                    -2.29655   0.45166   0.58388 
 6                    -0.82524   0.10977   0.68424 
 6                     0.13124   1.28581   0.65843 
 6                     1.58139   0.83782   0.72964 
 6                     1.85149  -0.31667  -0.25825 
 6                     0.59299  -0.61673  -1.07342 
 8                    -0.5349   -0.8253   -0.36705 
 8                     2.37669   1.95924   0.50685 
 8                    -0.06629   2.132    -0.52363 
 8                    -2.54858   1.0901   -0.63792 
 1                    -2.58064   1.0852    1.43862 
 1                    -2.8605   -0.48892   0.65843 
 1                    -0.65746  -0.39887   1.64248 
 1                    -0.09261   1.97407   1.47224 
 1                     1.73395   0.42135   1.7375 
 1                     2.64737  -0.01527  -0.9553 
 1                     0.71645  -1.44935  -1.76205 
 8                     2.21015  -1.44011   0.48588 
 6                    -3.93349   1.20478  -0.91426 
 1                    -4.03034   1.70259  -1.87904 
 1                    -4.40516   0.21618  -0.97193 
 1                    -4.4416    1.80485  -0.14952 
 6                     2.89524  -2.45394  -0.23543 
 1                     2.25259  -2.94193  -0.97705 
 1                     3.78318  -2.04503  -0.73313 
 1                     3.2038   -3.19689   0.49838 
 6                     3.72049   1.80468   0.94135 
 1                     3.75949   1.59727   2.01706 
 1                     4.23215   0.99808   0.40228 
 1                     4.22385   2.74744   0.73317 
 6                     0.05903   1.7086   -1.71736 
 8                     0.39938   0.52867  -2.05731 
 6                    -0.22803   2.67617  -2.78996 
 1                     0.12747   3.66654  -2.50482 
 1                    -1.31909   2.72156  -2.88566 
 1                     0.20261   2.34629  -3.73305 
 
 NAtoms=     36 NQM=       36 NQMF=       0 NMMI=      0 NMMIF=      0
                NMic=       0 NMicF=      0.
                    Isotopes and Nuclear Properties:
 (Nuclear quadrupole moments (NQMom) in fm**2, nuclear magnetic moments (NMagM)
  in nuclear magnetons)

  Atom         1           2           3           4           5           6           7           8           9          10
 IAtWgt=          12          12          12          12          12          12          16          16          16          16
 AtmWgt=  12.0000000  12.0000000  12.0000000  12.0000000  12.0000000  12.0000000  15.9949146  15.9949146  15.9949146  15.9949146
 NucSpn=           0           0           0           0           0           0           0           0           0           0
 AtZEff=   0.0000000   0.0000000   0.0000000   0.0000000   0.0000000   0.0000000   0.0000000   0.0000000   0.0000000   0.0000000
 NQMom=    0.0000000   0.0000000   0.0000000   0.0000000   0.0000000   0.0000000   0.0000000   0.0000000   0.0000000   0.0000000
 NMagM=    0.0000000   0.0000000   0.0000000   0.0000000   0.0000000   0.0000000   0.0000000   0.0000000   0.0000000   0.0000000
 AtZNuc=   6.0000000   6.0000000   6.0000000   6.0000000   6.0000000   6.0000000   8.0000000   8.0000000   8.0000000   8.0000000

  Atom        11          12          13          14          15          16          17          18          19          20
 IAtWgt=           1           1           1           1           1           1           1          16          12           1
 AtmWgt=   1.0078250   1.0078250   1.0078250   1.0078250   1.0078250   1.0078250   1.0078250  15.9949146  12.0000000   1.0078250
 NucSpn=           1           1           1           1           1           1           1           0           0           1
 AtZEff=   0.0000000   0.0000000   0.0000000   0.0000000   0.0000000   0.0000000   0.0000000   0.0000000   0.0000000   0.0000000
 NQMom=    0.0000000   0.0000000   0.0000000   0.0000000   0.0000000   0.0000000   0.0000000   0.0000000   0.0000000   0.0000000
 NMagM=    2.7928460   2.7928460   2.7928460   2.7928460   2.7928460   2.7928460   2.7928460   0.0000000   0.0000000   2.7928460
 AtZNuc=   1.0000000   1.0000000   1.0000000   1.0000000   1.0000000   1.0000000   1.0000000   8.0000000   6.0000000   1.0000000

  Atom        21          22          23          24          25          26          27          28          29          30
 IAtWgt=           1           1          12           1           1           1          12           1           1           1
 AtmWgt=   1.0078250   1.0078250  12.0000000   1.0078250   1.0078250   1.0078250  12.0000000   1.0078250   1.0078250   1.0078250
 NucSpn=           1           1           0           1           1           1           0           1           1           1
 AtZEff=   0.0000000   0.0000000   0.0000000   0.0000000   0.0000000   0.0000000   0.0000000   0.0000000   0.0000000   0.0000000
 NQMom=    0.0000000   0.0000000   0.0000000   0.0000000   0.0000000   0.0000000   0.0000000   0.0000000   0.0000000   0.0000000
 NMagM=    2.7928460   2.7928460   0.0000000   2.7928460   2.7928460   2.7928460   0.0000000   2.7928460   2.7928460   2.7928460
 AtZNuc=   1.0000000   1.0000000   6.0000000   1.0000000   1.0000000   1.0000000   6.0000000   1.0000000   1.0000000   1.0000000

  Atom        31          32          33          34          35          36
 IAtWgt=          12          16          12           1           1           1
 AtmWgt=  12.0000000  15.9949146  12.0000000   1.0078250   1.0078250   1.0078250
 NucSpn=           0           0           0           1           1           1
 AtZEff=   0.0000000   0.0000000   0.0000000   0.0000000   0.0000000   0.0000000
 NQMom=    0.0000000   0.0000000   0.0000000   0.0000000   0.0000000   0.0000000
 NMagM=    0.0000000   0.0000000   0.0000000   2.7928460   2.7928460   2.7928460
 AtZNuc=   6.0000000   8.0000000   6.0000000   1.0000000   1.0000000   1.0000000
 Leave Link  101 at Thu Jul  6 15:18:50 2017, MaxMem= 13421772800 cpu:         4.5
 (Enter /share/apps//g09/l103.exe)

 GradGradGradGradGradGradGradGradGradGradGradGradGradGradGradGradGradGrad
 Berny optimization.
 Initialization pass.
                           ----------------------------
                           !    Initial Parameters    !
                           ! (Angstroms and Degrees)  !
 --------------------------                            --------------------------
 ! Name  Definition              Value          Derivative Info.                !
 --------------------------------------------------------------------------------
 ! R1    R(1,2)                  1.5138         estimate D2E/DX2                !
 ! R2    R(1,10)                 1.4014         estimate D2E/DX2                !
 ! R3    R(1,11)                 1.1012         estimate D2E/DX2                !
 ! R4    R(1,12)                 1.0992         estimate D2E/DX2                !
 ! R5    R(2,3)                  1.5161         estimate D2E/DX2                !
 ! R6    R(2,7)                  1.4366         estimate D2E/DX2                !
 ! R7    R(2,13)                 1.0978         estimate D2E/DX2                !
 ! R8    R(3,4)                  1.5194         estimate D2E/DX2                !
 ! R9    R(3,9)                  1.4671         estimate D2E/DX2                !
 ! R10   R(3,14)                 1.0891         estimate D2E/DX2                !
 ! R11   R(4,5)                  1.5433         estimate D2E/DX2                !
 ! R12   R(4,8)                  1.3927         estimate D2E/DX2                !
 ! R13   R(4,15)                 1.1011         estimate D2E/DX2                !
 ! R14   R(5,6)                  1.5292         estimate D2E/DX2                !
 ! R15   R(5,16)                 1.1001         estimate D2E/DX2                !
 ! R16   R(5,18)                 1.3944         estimate D2E/DX2                !
 ! R17   R(6,7)                  1.3471         estimate D2E/DX2                !
 ! R18   R(6,17)                 1.0875         estimate D2E/DX2                !
 ! R19   R(6,32)                 1.5223         estimate D2E/DX2                !
 ! R20   R(8,27)                 1.4207         estimate D2E/DX2                !
 ! R21   R(9,31)                 1.2728         estimate D2E/DX2                !
 ! R22   R(10,19)                1.4169         estimate D2E/DX2                !
 ! R23   R(18,23)                1.4204         estimate D2E/DX2                !
 ! R24   R(19,20)                1.0899         estimate D2E/DX2                !
 ! R25   R(19,21)                1.0969         estimate D2E/DX2                !
 ! R26   R(19,22)                1.0969         estimate D2E/DX2                !
 ! R27   R(23,24)                1.096          estimate D2E/DX2                !
 ! R28   R(23,25)                1.097          estimate D2E/DX2                !
 ! R29   R(23,26)                1.0889         estimate D2E/DX2                !
 ! R30   R(27,28)                1.0962         estimate D2E/DX2                !
 ! R31   R(27,29)                1.0968         estimate D2E/DX2                !
 ! R32   R(27,30)                1.0888         estimate D2E/DX2                !
 ! R33   R(31,32)                1.2742         estimate D2E/DX2                !
 ! R34   R(31,33)                1.4728         estimate D2E/DX2                !
 ! R35   R(33,34)                1.0902         estimate D2E/DX2                !
 ! R36   R(33,35)                1.0962         estimate D2E/DX2                !
 ! R37   R(33,36)                1.088          estimate D2E/DX2                !
 ! A1    A(2,1,10)             109.6021         estimate D2E/DX2                !
 ! A2    A(2,1,11)             109.2206         estimate D2E/DX2                !
 ! A3    A(2,1,12)             107.5108         estimate D2E/DX2                !
 ! A4    A(10,1,11)            111.6059         estimate D2E/DX2                !
 ! A5    A(10,1,12)            110.8968         estimate D2E/DX2                !
 ! A6    A(11,1,12)            107.895          estimate D2E/DX2                !
 ! A7    A(1,2,3)              115.9023         estimate D2E/DX2                !
 ! A8    A(1,2,7)              107.152          estimate D2E/DX2                !
 ! A9    A(1,2,13)             108.1232         estimate D2E/DX2                !
 ! A10   A(3,2,7)              111.403          estimate D2E/DX2                !
 ! A11   A(3,2,13)             106.1322         estimate D2E/DX2                !
 ! A12   A(7,2,13)             107.8363         estimate D2E/DX2                !
 ! A13   A(2,3,4)              111.8765         estimate D2E/DX2                !
 ! A14   A(2,3,9)              112.0979         estimate D2E/DX2                !
 ! A15   A(2,3,14)             110.354          estimate D2E/DX2                !
 ! A16   A(4,3,9)              109.6528         estimate D2E/DX2                !
 ! A17   A(4,3,14)             110.3326         estimate D2E/DX2                !
 ! A18   A(9,3,14)             102.1159         estimate D2E/DX2                !
 ! A19   A(3,4,5)              110.9524         estimate D2E/DX2                !
 ! A20   A(3,4,8)              107.4631         estimate D2E/DX2                !
 ! A21   A(3,4,15)             106.6568         estimate D2E/DX2                !
 ! A22   A(5,4,8)              113.5786         estimate D2E/DX2                !
 ! A23   A(5,4,15)             106.1836         estimate D2E/DX2                !
 ! A24   A(8,4,15)             111.829          estimate D2E/DX2                !
 ! A25   A(4,5,6)              110.1206         estimate D2E/DX2                !
 ! A26   A(4,5,16)             109.1033         estimate D2E/DX2                !
 ! A27   A(4,5,18)             107.8252         estimate D2E/DX2                !
 ! A28   A(6,5,16)             108.1438         estimate D2E/DX2                !
 ! A29   A(6,5,18)             109.7586         estimate D2E/DX2                !
 ! A30   A(16,5,18)            111.887          estimate D2E/DX2                !
 ! A31   A(5,6,7)              116.0995         estimate D2E/DX2                !
 ! A32   A(5,6,17)             113.2265         estimate D2E/DX2                !
 ! A33   A(5,6,32)             107.5517         estimate D2E/DX2                !
 ! A34   A(7,6,17)             107.9717         estimate D2E/DX2                !
 ! A35   A(7,6,32)             110.4208         estimate D2E/DX2                !
 ! A36   A(17,6,32)            100.4415         estimate D2E/DX2                !
 ! A37   A(2,7,6)              116.8829         estimate D2E/DX2                !
 ! A38   A(4,8,27)             113.8028         estimate D2E/DX2                !
 ! A39   A(3,9,31)             123.4049         estimate D2E/DX2                !
 ! A40   A(1,10,19)            112.5015         estimate D2E/DX2                !
 ! A41   A(5,18,23)            115.3482         estimate D2E/DX2                !
 ! A42   A(10,19,20)           107.2452         estimate D2E/DX2                !
 ! A43   A(10,19,21)           110.9547         estimate D2E/DX2                !
 ! A44   A(10,19,22)           111.1673         estimate D2E/DX2                !
 ! A45   A(20,19,21)           109.0805         estimate D2E/DX2                !
 ! A46   A(20,19,22)           109.0328         estimate D2E/DX2                !
 ! A47   A(21,19,22)           109.3011         estimate D2E/DX2                !
 ! A48   A(18,23,24)           112.2484         estimate D2E/DX2                !
 ! A49   A(18,23,25)           110.7787         estimate D2E/DX2                !
 ! A50   A(18,23,26)           106.3472         estimate D2E/DX2                !
 ! A51   A(24,23,25)           109.4877         estimate D2E/DX2                !
 ! A52   A(24,23,26)           108.5655         estimate D2E/DX2                !
 ! A53   A(25,23,26)           109.3123         estimate D2E/DX2                !
 ! A54   A(8,27,28)            110.7535         estimate D2E/DX2                !
 ! A55   A(8,27,29)            111.7731         estimate D2E/DX2                !
 ! A56   A(8,27,30)            106.5351         estimate D2E/DX2                !
 ! A57   A(28,27,29)           109.0597         estimate D2E/DX2                !
 ! A58   A(28,27,30)           109.5726         estimate D2E/DX2                !
 ! A59   A(29,27,30)           109.0938         estimate D2E/DX2                !
 ! A60   A(9,31,32)            125.7721         estimate D2E/DX2                !
 ! A61   A(9,31,33)            116.4435         estimate D2E/DX2                !
 ! A62   A(32,31,33)           117.7826         estimate D2E/DX2                !
 ! A63   A(6,32,31)            123.936          estimate D2E/DX2                !
 ! A64   A(31,33,34)           110.0463         estimate D2E/DX2                !
 ! A65   A(31,33,35)           106.546          estimate D2E/DX2                !
 ! A66   A(31,33,36)           110.7904         estimate D2E/DX2                !
 ! A67   A(34,33,35)           108.0464         estimate D2E/DX2                !
 ! A68   A(34,33,36)           111.9064         estimate D2E/DX2                !
 ! A69   A(35,33,36)           109.3195         estimate D2E/DX2                !
 ! D1    D(10,1,2,3)            61.7325         estimate D2E/DX2                !
 ! D2    D(10,1,2,7)           -63.328          estimate D2E/DX2                !
 ! D3    D(10,1,2,13)         -179.3236         estimate D2E/DX2                !
 ! D4    D(11,1,2,3)           -60.8223         estimate D2E/DX2                !
 ! D5    D(11,1,2,7)           174.1171         estimate D2E/DX2                !
 ! D6    D(11,1,2,13)           58.1215         estimate D2E/DX2                !
 ! D7    D(12,1,2,3)          -177.6445         estimate D2E/DX2                !
 ! D8    D(12,1,2,7)            57.295          estimate D2E/DX2                !
 ! D9    D(12,1,2,13)          -58.7007         estimate D2E/DX2                !
 ! D10   D(2,1,10,19)          168.4836         estimate D2E/DX2                !
 ! D11   D(11,1,10,19)         -70.3913         estimate D2E/DX2                !
 ! D12   D(12,1,10,19)          49.9383         estimate D2E/DX2                !
 ! D13   D(1,2,3,4)           -178.5851         estimate D2E/DX2                !
 ! D14   D(1,2,3,9)            -54.9312         estimate D2E/DX2                !
 ! D15   D(1,2,3,14)            58.1627         estimate D2E/DX2                !
 ! D16   D(7,2,3,4)            -55.7332         estimate D2E/DX2                !
 ! D17   D(7,2,3,9)             67.9206         estimate D2E/DX2                !
 ! D18   D(7,2,3,14)          -178.9854         estimate D2E/DX2                !
 ! D19   D(13,2,3,4)            61.3859         estimate D2E/DX2                !
 ! D20   D(13,2,3,9)          -174.9602         estimate D2E/DX2                !
 ! D21   D(13,2,3,14)          -61.8663         estimate D2E/DX2                !
 ! D22   D(1,2,7,6)            135.7701         estimate D2E/DX2                !
 ! D23   D(3,2,7,6)              8.0355         estimate D2E/DX2                !
 ! D24   D(13,2,7,6)          -108.0442         estimate D2E/DX2                !
 ! D25   D(2,3,4,5)             46.8944         estimate D2E/DX2                !
 ! D26   D(2,3,4,8)            171.6087         estimate D2E/DX2                !
 ! D27   D(2,3,4,15)           -68.3251         estimate D2E/DX2                !
 ! D28   D(9,3,4,5)            -78.1247         estimate D2E/DX2                !
 ! D29   D(9,3,4,8)             46.5896         estimate D2E/DX2                !
 ! D30   D(9,3,4,15)           166.6558         estimate D2E/DX2                !
 ! D31   D(14,3,4,5)           170.1587         estimate D2E/DX2                !
 ! D32   D(14,3,4,8)           -65.127          estimate D2E/DX2                !
 ! D33   D(14,3,4,15)           54.9392         estimate D2E/DX2                !
 ! D34   D(2,3,9,31)           -59.9718         estimate D2E/DX2                !
 ! D35   D(4,3,9,31)            64.9194         estimate D2E/DX2                !
 ! D36   D(14,3,9,31)         -178.078          estimate D2E/DX2                !
 ! D37   D(3,4,5,6)              3.1001         estimate D2E/DX2                !
 ! D38   D(3,4,5,16)           121.6456         estimate D2E/DX2                !
 ! D39   D(3,4,5,18)          -116.6348         estimate D2E/DX2                !
 ! D40   D(8,4,5,6)           -118.08           estimate D2E/DX2                !
 ! D41   D(8,4,5,16)             0.4654         estimate D2E/DX2                !
 ! D42   D(8,4,5,18)           122.1851         estimate D2E/DX2                !
 ! D43   D(15,4,5,6)           118.6138         estimate D2E/DX2                !
 ! D44   D(15,4,5,16)         -122.8408         estimate D2E/DX2                !
 ! D45   D(15,4,5,18)           -1.1211         estimate D2E/DX2                !
 ! D46   D(3,4,8,27)           161.571          estimate D2E/DX2                !
 ! D47   D(5,4,8,27)           -75.3141         estimate D2E/DX2                !
 ! D48   D(15,4,8,27)           44.8459         estimate D2E/DX2                !
 ! D49   D(4,5,6,7)            -52.1232         estimate D2E/DX2                !
 ! D50   D(4,5,6,17)          -177.8638         estimate D2E/DX2                !
 ! D51   D(4,5,6,32)            72.102          estimate D2E/DX2                !
 ! D52   D(16,5,6,7)          -171.256          estimate D2E/DX2                !
 ! D53   D(16,5,6,17)           63.0035         estimate D2E/DX2                !
 ! D54   D(16,5,6,32)          -47.0307         estimate D2E/DX2                !
 ! D55   D(18,5,6,7)            66.4317         estimate D2E/DX2                !
 ! D56   D(18,5,6,17)          -59.3088         estimate D2E/DX2                !
 ! D57   D(18,5,6,32)         -169.343          estimate D2E/DX2                !
 ! D58   D(4,5,18,23)         -160.7801         estimate D2E/DX2                !
 ! D59   D(6,5,18,23)           79.2562         estimate D2E/DX2                !
 ! D60   D(16,5,18,23)         -40.8028         estimate D2E/DX2                !
 ! D61   D(5,6,7,2)             46.5929         estimate D2E/DX2                !
 ! D62   D(17,6,7,2)           174.9511         estimate D2E/DX2                !
 ! D63   D(32,6,7,2)           -76.1395         estimate D2E/DX2                !
 ! D64   D(5,6,32,31)          -69.8527         estimate D2E/DX2                !
 ! D65   D(7,6,32,31)           57.745          estimate D2E/DX2                !
 ! D66   D(17,6,32,31)         171.5354         estimate D2E/DX2                !
 ! D67   D(4,8,27,28)          -59.6726         estimate D2E/DX2                !
 ! D68   D(4,8,27,29)           62.1571         estimate D2E/DX2                !
 ! D69   D(4,8,27,30)         -178.7636         estimate D2E/DX2                !
 ! D70   D(3,9,31,32)           -1.903          estimate D2E/DX2                !
 ! D71   D(3,9,31,33)          177.5967         estimate D2E/DX2                !
 ! D72   D(1,10,19,20)        -179.5806         estimate D2E/DX2                !
 ! D73   D(1,10,19,21)         -60.542          estimate D2E/DX2                !
 ! D74   D(1,10,19,22)          61.3175         estimate D2E/DX2                !
 ! D75   D(5,18,23,24)         -67.8555         estimate D2E/DX2                !
 ! D76   D(5,18,23,25)          54.8781         estimate D2E/DX2                !
 ! D77   D(5,18,23,26)         173.5584         estimate D2E/DX2                !
 ! D78   D(9,31,32,6)            5.8025         estimate D2E/DX2                !
 ! D79   D(33,31,32,6)        -173.6912         estimate D2E/DX2                !
 ! D80   D(9,31,33,34)          37.4185         estimate D2E/DX2                !
 ! D81   D(9,31,33,35)         -79.4801         estimate D2E/DX2                !
 ! D82   D(9,31,33,36)         161.7064         estimate D2E/DX2                !
 ! D83   D(32,31,33,34)       -143.0402         estimate D2E/DX2                !
 ! D84   D(32,31,33,35)        100.0611         estimate D2E/DX2                !
 ! D85   D(32,31,33,36)        -18.7524         estimate D2E/DX2                !
 --------------------------------------------------------------------------------
 Trust Radius=3.00D-01 FncErr=1.00D-07 GrdErr=1.00D-06
 Number of steps in this run=    216 maximum allowed number of steps=    216.
 GradGradGradGradGradGradGradGradGradGradGradGradGradGradGradGradGradGrad

 Leave Link  103 at Thu Jul  6 15:18:51 2017, MaxMem= 13421772800 cpu:         0.2
 (Enter /share/apps//g09/l202.exe)
                          Input orientation:                          
 ---------------------------------------------------------------------
 Center     Atomic      Atomic             Coordinates (Angstroms)
 Number     Number       Type             X           Y           Z
 ---------------------------------------------------------------------
      1          6           0       -2.296547    0.451664    0.583877
      2          6           0       -0.825244    0.109771    0.684242
      3          6           0        0.131237    1.285807    0.658427
      4          6           0        1.581391    0.837817    0.729639
      5          6           0        1.851485   -0.316666   -0.258245
      6          6           0        0.592993   -0.616732   -1.073420
      7          8           0       -0.534900   -0.825302   -0.367050
      8          8           0        2.376689    1.959241    0.506846
      9          8           0       -0.066287    2.131999   -0.523626
     10          8           0       -2.548584    1.090104   -0.637916
     11          1           0       -2.580641    1.085196    1.438623
     12          1           0       -2.860503   -0.488918    0.658430
     13          1           0       -0.657463   -0.398874    1.642481
     14          1           0       -0.092609    1.974069    1.472241
     15          1           0        1.733951    0.421350    1.737499
     16          1           0        2.647372   -0.015272   -0.955295
     17          1           0        0.716445   -1.449348   -1.762053
     18          8           0        2.210146   -1.440108    0.485878
     19          6           0       -3.933490    1.204778   -0.914260
     20          1           0       -4.030341    1.702589   -1.879037
     21          1           0       -4.405164    0.216184   -0.971928
     22          1           0       -4.441602    1.804851   -0.149519
     23          6           0        2.895242   -2.453938   -0.235432
     24          1           0        2.252589   -2.941928   -0.977054
     25          1           0        3.783183   -2.045032   -0.733133
     26          1           0        3.203801   -3.196887    0.498381
     27          6           0        3.720486    1.804679    0.941348
     28          1           0        3.759492    1.597269    2.017057
     29          1           0        4.232151    0.998076    0.402275
     30          1           0        4.223853    2.747436    0.733165
     31          6           0        0.059028    1.708600   -1.717357
     32          8           0        0.399377    0.528667   -2.057310
     33          6           0       -0.228029    2.676173   -2.789955
     34          1           0        0.127473    3.666535   -2.504822
     35          1           0       -1.319094    2.721563   -2.885662
     36          1           0        0.202607    2.346287   -3.733046
 ---------------------------------------------------------------------
                    Distance matrix (angstroms):
                    1          2          3          4          5
     1  C    0.000000
     2  C    1.513835   0.000000
     3  C    2.568168   1.516108   0.000000
     4  C    3.899842   2.514757   1.519445   0.000000
     5  C    4.301822   2.869670   2.523383   1.543275   0.000000
     6  C    3.498220   2.372463   2.613841   2.518663   1.529167
     7  O    2.374511   1.436620   2.439697   2.906438   2.442413
     8  O    4.910993   3.701943   2.349158   1.392741   2.457836
     9  O    3.004022   2.474746   1.467074   2.441398   3.121576
    10  O    1.401394   2.383077   2.983328   4.357815   4.635058
    11  H    1.101210   2.145219   2.828999   4.229227   4.948567
    12  H    1.099227   2.121644   3.478528   4.636348   4.803415
    13  H    2.128533   1.097767   2.104414   2.715723   3.148704
    14  H    2.822100   2.152511   1.089084   2.155180   3.467211
    15  H    4.192455   2.784944   2.116690   1.101136   2.131074
    16  H    5.198982   3.842236   3.260037   2.168658   1.100070
    17  H    4.265601   3.285120   3.698955   3.491101   2.198345
    18  O    4.888628   3.413952   3.432528   2.375646   1.394446
    19  C    2.343326   3.662710   4.359119   5.766366   6.017565
    20  H    3.261411   4.402285   4.891949   6.248564   6.426526
    21  H    2.631016   3.945890   4.937721   6.254646   6.319725
    22  H    2.640122   4.080012   4.672584   6.163158   6.641958
    23  C    6.005703   4.610902   4.735441   3.673312   2.378630
    24  H    5.886222   4.641748   5.004865   4.201164   2.751285
    25  H    6.703068   5.281073   5.134943   3.911318   2.635190
    26  H    6.600989   5.215528   5.436985   4.354828   3.270614
    27  C    6.177631   4.858238   3.637579   2.356983   3.071204
    28  H    6.327877   5.000885   3.886788   2.641654   3.532795
    29  H    6.554040   5.142551   4.118968   2.675702   2.798643
    30  H    6.914367   5.696758   4.346430   3.260255   3.999968
    31  C    3.524812   3.017593   2.414191   3.010588   3.073046
    32  O    3.774891   3.031712   2.832029   3.042995   2.461674
    33  C    4.539818   4.360405   3.735442   4.363610   4.437456
    34  H    5.074577   4.871177   3.959043   4.536217   4.887250
    35  H    4.259760   4.450793   4.089673   5.003170   5.117297
    36  H    5.335840   5.056769   4.518268   4.908369   4.678072
                    6          7          8          9         10
     6  C    0.000000
     7  O    1.347072   0.000000
     8  O    3.509195   4.122466   0.000000
     9  O    2.879661   2.998290   2.657038   0.000000
    10  O    3.601730   2.792324   5.130711   2.694514   0.000000
    11  H    4.390771   3.330993   5.119305   3.356813   2.076792
    12  H    3.865524   2.563824   5.783134   4.009252   2.066668
    13  H    2.997869   2.057930   4.007050   3.383316   3.315661
    14  H    3.696308   3.378623   2.651347   2.002279   3.356482
    15  H    3.206348   3.336308   2.071890   3.358551   4.942665
    16  H    2.143871   3.336021   2.471806   3.487271   5.321705
    17  H    1.087523   1.975179   4.418460   3.869421   4.286364
    18  O    2.392602   2.939515   3.403491   4.354445   5.505488
    19  C    4.881832   3.996383   6.512075   3.995947   1.416856
    20  H    5.234834   4.571044   6.841662   4.211325   2.027590
    21  H    5.068099   4.053334   7.156714   4.764155   2.078988
    22  H    5.662579   4.714589   6.851550   4.403449   2.081565
    23  C    3.062336   3.799428   4.505111   5.466674   6.508262
    24  H    2.858335   3.552788   5.122384   5.597099   6.278818
    25  H    3.511858   4.501955   4.421535   5.684180   7.066075
    26  H    3.993003   4.511238   5.222053   6.335219   7.263566
    27  C    4.438889   5.170785   1.420729   4.073443   6.504301
    28  H    4.947683   5.476734   2.079400   4.623591   6.862792
    29  H    4.246028   5.161525   2.092251   4.540886   6.860673
    30  H    5.269205   6.051501   2.021011   4.512603   7.105809
    31  C    2.471223   2.932020   3.222026   1.272778   2.889182
    32  O    1.522322   2.358619   3.539944   2.267091   3.319693
    33  C    3.803129   4.269071   4.262328   2.336350   3.540037
    34  H    4.540044   5.018506   4.128434   2.513460   4.157477
    35  H    4.252589   4.420251   5.074353   2.737942   3.037378
    36  H    4.000687   4.683249   4.780494   3.227786   4.327456
                   11         12         13         14         15
    11  H    0.000000
    12  H    1.779005   0.000000
    13  H    2.437752   2.414508   0.000000
    14  H    2.642258   3.793393   2.445179   0.000000
    15  H    4.375583   4.806452   2.529952   2.411974   0.000000
    16  H    5.854399   5.758918   4.221081   4.166282   2.876824
    17  H    5.247763   4.424446   3.818635   4.778599   4.096547
    18  O    5.498775   5.161978   3.262680   4.234643   2.293108
    19  C    2.716718   2.548188   4.454321   4.586890   6.305987
    20  H    3.672829   3.551051   5.309759   5.177886   6.924447
    21  H    3.145604   2.353978   4.610715   5.259492   6.713555
    22  H    2.550152   2.900695   4.731530   4.644618   6.603966
    23  C    6.731510   6.147267   4.513486   5.608088   3.675369
    24  H    6.738942   5.902184   4.668778   5.972104   4.353093
    25  H    7.417082   6.963943   5.298369   6.003217   4.048014
    26  H    7.258103   6.643380   4.903795   6.209147   4.097257
    27  C    6.361536   6.974958   4.951128   3.853600   2.548289
    28  H    6.387025   7.072650   4.861521   3.908642   2.358761
    29  H    6.891715   7.251380   5.234301   4.560805   2.890751
    30  H    7.040018   7.788946   5.878211   4.447041   3.552320
    31  C    4.161333   4.358567   4.030300   3.204216   4.049495
    32  O    4.627286   4.363203   3.957991   3.845643   4.024075
    33  C    5.093806   5.370203   5.411730   4.321759   5.425074
    34  H    5.435803   6.016806   5.860358   4.327806   5.577570
    35  H    4.792561   5.024313   5.538859   4.588500   5.998807
    36  H    6.006911   6.058555   6.096878   5.226922   5.998105
                   16         17         18         19         20
    16  H    0.000000
    17  H    2.536910   0.000000
    18  O    2.073235   2.698967   0.000000
    19  C    6.693127   5.420796   6.833745   0.000000
    20  H    6.956737   5.699155   7.376520   1.089950   0.000000
    21  H    7.056353   5.443269   6.973581   1.096868   1.781218
    22  H    7.363129   6.308370   7.428273   1.096857   1.780681
    23  C    2.554747   2.843753   1.420386   7.776798   8.242685
    24  H    2.953243   2.281174   2.097006   7.447596   7.865133
    25  H    2.336525   3.289133   2.079992   8.375029   8.741219
    26  H    3.541957   3.788191   2.018360   8.503595   9.054821
    27  C    2.839199   5.188577   3.607939   7.898513   8.248655
    28  H    3.559772   5.729196   3.737732   8.241883   8.710461
    29  H    2.319783   4.799415   3.168633   8.273674   8.600552
    30  H    3.601214   6.011740   4.653138   8.463808   8.720494
    31  C    3.201874   3.225962   4.404079   4.103535   4.092568
    32  O    2.561989   2.024908   3.690903   4.531824   4.586096
    33  C    4.344857   4.355288   5.798237   4.406095   4.029294
    34  H    4.722989   5.202966   6.273724   5.008149   4.640701
    35  H    5.191285   4.775187   6.414228   3.608619   3.066343
    36  H    4.389731   4.307631   6.013844   5.133799   4.665785
                   21         22         23         24         25
    21  H    0.000000
    22  H    1.789287   0.000000
    23  C    7.808195   8.483746   0.000000
    24  H    7.368811   8.247964   1.095965   0.000000
    25  H    8.498185   9.099961   1.096973   1.790709   0.000000
    26  H    8.468011   9.159113   1.088882   1.773899   1.782998
    27  C    8.497654   8.234663   4.494625   5.325905   4.198582
    28  H    8.803581   8.484992   4.715179   5.642674   4.564040
    29  H    8.780831   8.728651   3.756381   4.620048   3.278907
    30  H    9.152842   8.761148   5.455060   6.259360   5.031100
    31  C    4.765709   4.766870   5.250422   5.194918   5.378455
    32  O    4.935516   5.357554   4.294708   4.079997   4.452810
    33  C    5.177376   5.048297   6.526749   6.403369   6.527642
    34  H    5.899109   5.467153   7.090195   7.107881   7.008930
    35  H    4.411704   4.251693   7.181236   6.962387   7.306644
    36  H    5.778639   5.890967   6.521177   6.305802   6.411216
                   26         27         28         29         30
    26  H    0.000000
    27  C    5.047657   0.000000
    28  H    5.059555   1.096216   0.000000
    29  H    4.320238   1.096818   1.786046   0.000000
    30  H    6.035777   1.088811   1.785187   1.780398   0.000000
    31  C    6.234011   4.525949   5.258486   4.734199   4.942672
    32  O    5.317528   4.652948   5.388205   4.578216   5.228413
    33  C    7.555359   5.502081   6.338117   5.735813   5.677738
    34  H    8.098740   5.315293   6.157988   5.693880   5.301852
    35  H    8.181465   6.394064   7.147918   6.678118   6.619731
    36  H    7.592030   5.875268   6.802657   5.929231   6.023154
                   31         32         33         34         35
    31  C    0.000000
    32  O    1.274224   0.000000
    33  C    1.472775   2.354185   0.000000
    34  H    2.111468   3.181260   1.090183   0.000000
    35  H    2.071292   2.906562   1.096195   1.769341   0.000000
    36  H    2.119024   2.480031   1.087976   1.804781   1.781703
                   36
    36  H    0.000000
 Stoichiometry    C11H19O6(1+)
 Framework group  C1[X(C11H19O6)]
 Deg. of freedom   102
 Full point group                 C1      NOp   1
 Largest Abelian subgroup         C1      NOp   1
 Largest concise Abelian subgroup C1      NOp   1
                         Standard orientation:                         
 ---------------------------------------------------------------------
 Center     Atomic      Atomic             Coordinates (Angstroms)
 Number     Number       Type             X           Y           Z
 ---------------------------------------------------------------------
      1          6           0        2.230916   -1.106645   -1.240819
      2          6           0        0.734244   -0.996721   -1.041854
      3          6           0        0.149904    0.396547   -1.168085
      4          6           0       -1.348817    0.406692   -0.918191
      5          6           0       -1.702155   -0.397280    0.350855
      6          6           0       -0.426389   -0.903258    1.025215
      7          8           0        0.433071   -1.577641    0.237091
      8          8           0       -1.754721    1.737923   -0.865328
      9          8           0        0.806249    1.353687   -0.270644
     10          8           0        2.891965   -0.352221   -0.262165
     11          1           0        2.487510   -0.767161   -2.256483
     12          1           0        2.497732   -2.170130   -1.162667
     13          1           0        0.241839   -1.604902   -1.811753
     14          1           0        0.372779    0.813328   -2.149270
     15          1           0       -1.812879   -0.129721   -1.760454
     16          1           0       -2.226412    0.260751    1.059588
     17          1           0       -0.619018   -1.509414    1.907357
     18          8           0       -2.492123   -1.479453   -0.035579
     19          6           0        4.283947   -0.613813   -0.224278
     20          1           0        4.708067    0.007131    0.564735
     21          1           0        4.478774   -1.668462    0.005673
     22          1           0        4.761411   -0.356414   -1.177624
     23          6           0       -3.254668   -2.077244    1.003010
     24          1           0       -2.623790   -2.585100    1.741396
     25          1           0       -3.878783   -1.329348    1.507473
     26          1           0       -3.894730   -2.817790    0.525960
     27          6           0       -3.151545    1.919276   -1.050975
     28          1           0       -3.467583    1.530178   -2.025866
     29          1           0       -3.734042    1.426787   -0.262837
     30          1           0       -3.332850    2.992113   -1.010244
     31          6           0        0.825446    1.227231    0.995691
     32          8           0        0.264016    0.295925    1.659854
     33          6           0        1.575338    2.249198    1.745564
     34          1           0        1.442896    3.226228    1.280405
     35          1           0        2.634635    1.977644    1.669461
     36          1           0        1.279465    2.254618    2.792522
 ---------------------------------------------------------------------
 Rotational constants (GHZ):      0.7285600      0.3738383      0.3282355
 Leave Link  202 at Thu Jul  6 15:18:51 2017, MaxMem= 13421772800 cpu:         0.9
 (Enter /share/apps//g09/l301.exe)
 Standard basis: 6-311+G(d,p) (5D, 7F)
 Ernie: Thresh=  0.10000D-02 Tol=  0.10000D-05 Strict=F.
 There are   505 symmetry adapted cartesian basis functions of A   symmetry.
 There are   488 symmetry adapted basis functions of A   symmetry.
   488 basis functions,   764 primitive gaussians,   505 cartesian basis functions
    66 alpha electrons       66 beta electrons
       nuclear repulsion energy      1466.2450767906 Hartrees.
 IExCor= 1009 DFT=T Ex+Corr=PBE1PBE ExCW=0 ScaHFX=  0.250000
 ScaDFX=  0.750000  0.750000  1.000000  1.000000 ScalE2=  1.000000  1.000000
 IRadAn=      0 IRanWt=     -1 IRanGd=            0 ICorTp=0 IEmpDi=131
 NAtoms=   36 NActive=   36 NUniq=   36 SFac= 1.00D+00 NAtFMM=   60 NAOKFM=F Big=F
 Integral buffers will be    131072 words long.
 Raffenetti 2 integral format.
 Two-electron integral symmetry is turned on.
 R6Disp:  Grimme-D3 Dispersion energy=       -0.0248904717 Hartrees.
 Nuclear repulsion after empirical dispersion term =     1466.2201863189 Hartrees.
 Leave Link  301 at Thu Jul  6 15:18:51 2017, MaxMem= 13421772800 cpu:         1.6
 (Enter /share/apps//g09/l302.exe)
 NPDir=0 NMtPBC=     1 NCelOv=     1 NCel=       1 NClECP=     1 NCelD=      1
         NCelK=      1 NCelE2=     1 NClLst=     1 CellRange=     0.0.
 One-electron integrals computed using PRISM.
 NBasis=   488 RedAO= T EigKep=  1.29D-06  NBF=   488
 NBsUse=   488 1.00D-06 EigRej= -1.00D+00 NBFU=   488
 Precomputing XC quadrature grid using
 IXCGrd= 4 IRadAn=           0 IRanWt=          -1 IRanGd=           0 AccXCQ= 0.00D+00.
 Generated NRdTot=       0 NPtTot=           0 NUsed=           0 NTot=          32
 NSgBfM=   503   504   504   504   504 MxSgAt=    36 MxSgA2=    36.
 Leave Link  302 at Thu Jul  6 15:18:52 2017, MaxMem= 13421772800 cpu:        11.6
 (Enter /share/apps//g09/l303.exe)
 DipDrv:  MaxL=1.
 Leave Link  303 at Thu Jul  6 15:18:53 2017, MaxMem= 13421772800 cpu:         7.7
 (Enter /share/apps//g09/l401.exe)
 ExpMin= 4.38D-02 ExpMax= 8.59D+03 ExpMxC= 1.30D+03 IAcc=2 IRadAn=         4 AccDes= 0.00D+00
 Harris functional with IExCor= 1009 and IRadAn=       4 diagonalized for initial guess.
 HarFok:  IExCor= 1009 AccDes= 0.00D+00 IRadAn=         4 IDoV= 1 UseB2=F ITyADJ=14
 ICtDFT=  3500011 ScaDFX=  1.000000  1.000000  1.000000  1.000000
 FoFCou: FMM=F IPFlag=           0 FMFlag=      100000 FMFlg1=           0
         NFxFlg=           0 DoJE=T BraDBF=F KetDBF=T FulRan=T
         wScrn=  0.000000 ICntrl=     500 IOpCl=  0 I1Cent=   200000004 NGrid=           0
         NMat0=    1 NMatS0=      1 NMatT0=    0 NMatD0=    1 NMtDS0=    0 NMtDT0=    0
 Petite list used in FoFCou.
 Harris En= -881.115002477861    
 JPrj=0 DoOrth=F DoCkMO=F.
 Leave Link  401 at Thu Jul  6 15:18:54 2017, MaxMem= 13421772800 cpu:        26.8
 (Enter /share/apps//g09/l502.exe)
 Closed shell SCF:
 Using DIIS extrapolation, IDIIS=  1040.
 Integral symmetry usage will be decided dynamically.
 Keep R1 ints in memory in canonical form, NReq=7183787934.
 IVT=      797493 IEndB=      797493 NGot= 13421772800 MDV=  6302761722
 LenX=  6302761722 LenY=  6302506192
 Requested convergence on RMS density matrix=1.00D-08 within 128 cycles.
 Requested convergence on MAX density matrix=1.00D-06.
 Requested convergence on             energy=1.00D-06.
 No special actions if energy rises.
 FoFCou: FMM=F IPFlag=           0 FMFlag=           0 FMFlg1=           0
         NFxFlg=           0 DoJE=F BraDBF=F KetDBF=F FulRan=T
         wScrn=  0.000000 ICntrl=     600 IOpCl=  0 I1Cent=           0 NGrid=           0
         NMat0=    1 NMatS0= 119316 NMatT0=    0 NMatD0=    1 NMtDS0=    0 NMtDT0=    0
 Symmetry not used in FoFCou.

 Cycle   1  Pass 1  IDiag  1:
 E= -880.649997915921    
 DIIS: error= 1.50D-02 at cycle   1 NSaved=   1.
 NSaved= 1 IEnMin= 1 EnMin= -880.649997915921     IErMin= 1 ErrMin= 1.50D-02
 ErrMax= 1.50D-02  0.00D+00 EMaxC= 1.00D-01 BMatC= 3.83D-01 BMatP= 3.83D-01
 IDIUse=3 WtCom= 8.50D-01 WtEn= 1.50D-01
 Coeff-Com:  0.100D+01
 Coeff-En:   0.100D+01
 Coeff:      0.100D+01
 Gap=     0.122 Goal=   None    Shift=    0.000
 GapD=    0.122 DampG=1.000 DampE=0.500 DampFc=0.5000 IDamp=-1.
 Damping current iteration by 5.00D-01
 RMSDP=1.21D-02 MaxDP=1.19D+00              OVMax= 1.23D-01

 Cycle   2  Pass 1  IDiag  1:
 E= -880.780655307368     Delta-E=       -0.130657391447 Rises=F Damp=T
 DIIS: error= 3.97D-03 at cycle   2 NSaved=   2.
 NSaved= 2 IEnMin= 2 EnMin= -880.780655307368     IErMin= 2 ErrMin= 3.97D-03
 ErrMax= 3.97D-03  0.00D+00 EMaxC= 1.00D-01 BMatC= 2.90D-02 BMatP= 3.83D-01
 IDIUse=3 WtCom= 9.60D-01 WtEn= 3.97D-02
 Coeff-Com: -0.217D-01 0.102D+01
 Coeff-En:   0.241D-01 0.976D+00
 Coeff:     -0.199D-01 0.102D+01
 Gap=     0.236 Goal=   None    Shift=    0.000
 RMSDP=6.05D-03 MaxDP=9.79D-01 DE=-1.31D-01 OVMax= 8.85D-02

 Cycle   3  Pass 1  IDiag  1:
 E= -880.917580363364     Delta-E=       -0.136925055996 Rises=F Damp=F
 DIIS: error= 5.58D-03 at cycle   3 NSaved=   3.
 NSaved= 3 IEnMin= 3 EnMin= -880.917580363364     IErMin= 2 ErrMin= 3.97D-03
 ErrMax= 5.58D-03  0.00D+00 EMaxC= 1.00D-01 BMatC= 1.97D-02 BMatP= 2.90D-02
 IDIUse=3 WtCom= 9.44D-01 WtEn= 5.58D-02
 Coeff-Com: -0.927D-01 0.477D+00 0.616D+00
 Coeff-En:   0.000D+00 0.000D+00 0.100D+01
 Coeff:     -0.876D-01 0.450D+00 0.638D+00
 Gap=     0.212 Goal=   None    Shift=    0.000
 RMSDP=1.48D-03 MaxDP=1.35D-01 DE=-1.37D-01 OVMax= 2.14D-02

 Cycle   4  Pass 1  IDiag  1:
 E= -880.929216274839     Delta-E=       -0.011635911475 Rises=F Damp=F
 DIIS: error= 2.64D-03 at cycle   4 NSaved=   4.
 NSaved= 4 IEnMin= 4 EnMin= -880.929216274839     IErMin= 4 ErrMin= 2.64D-03
 ErrMax= 2.64D-03  0.00D+00 EMaxC= 1.00D-01 BMatC= 4.22D-03 BMatP= 1.97D-02
 IDIUse=3 WtCom= 9.74D-01 WtEn= 2.64D-02
 Coeff-Com: -0.466D-01 0.153D+00 0.365D+00 0.529D+00
 Coeff-En:   0.000D+00 0.000D+00 0.149D+00 0.851D+00
 Coeff:     -0.454D-01 0.149D+00 0.359D+00 0.538D+00
 Gap=     0.211 Goal=   None    Shift=    0.000
 RMSDP=8.25D-04 MaxDP=1.19D-01 DE=-1.16D-02 OVMax= 7.69D-03

 Cycle   5  Pass 1  IDiag  1:
 E= -880.932124386870     Delta-E=       -0.002908112031 Rises=F Damp=F
 DIIS: error= 4.19D-04 at cycle   5 NSaved=   5.
 NSaved= 5 IEnMin= 5 EnMin= -880.932124386870     IErMin= 5 ErrMin= 4.19D-04
 ErrMax= 4.19D-04  0.00D+00 EMaxC= 1.00D-01 BMatC= 2.38D-04 BMatP= 4.22D-03
 IDIUse=3 WtCom= 9.96D-01 WtEn= 4.19D-03
 Coeff-Com: -0.169D-01 0.436D-01 0.141D+00 0.277D+00 0.556D+00
 Coeff-En:   0.000D+00 0.000D+00 0.000D+00 0.000D+00 0.100D+01
 Coeff:     -0.169D-01 0.434D-01 0.140D+00 0.276D+00 0.558D+00
 Gap=     0.212 Goal=   None    Shift=    0.000
 RMSDP=1.57D-04 MaxDP=1.26D-02 DE=-2.91D-03 OVMax= 3.44D-03

 Cycle   6  Pass 1  IDiag  1:
 E= -880.932257064705     Delta-E=       -0.000132677835 Rises=F Damp=F
 DIIS: error= 1.98D-04 at cycle   6 NSaved=   6.
 NSaved= 6 IEnMin= 6 EnMin= -880.932257064705     IErMin= 6 ErrMin= 1.98D-04
 ErrMax= 1.98D-04  0.00D+00 EMaxC= 1.00D-01 BMatC= 5.16D-05 BMatP= 2.38D-04
 IDIUse=3 WtCom= 9.98D-01 WtEn= 1.98D-03
 Coeff-Com: -0.571D-02 0.103D-01 0.490D-01 0.118D+00 0.366D+00 0.462D+00
 Coeff-En:   0.000D+00 0.000D+00 0.000D+00 0.000D+00 0.177D+00 0.823D+00
 Coeff:     -0.570D-02 0.102D-01 0.489D-01 0.118D+00 0.365D+00 0.463D+00
 Gap=     0.212 Goal=   None    Shift=    0.000
 RMSDP=8.35D-05 MaxDP=1.08D-02 DE=-1.33D-04 OVMax= 1.28D-03

 Cycle   7  Pass 1  IDiag  1:
 E= -880.932293678512     Delta-E=       -0.000036613807 Rises=F Damp=F
 DIIS: error= 3.57D-05 at cycle   7 NSaved=   7.
 NSaved= 7 IEnMin= 7 EnMin= -880.932293678512     IErMin= 7 ErrMin= 3.57D-05
 ErrMax= 3.57D-05  0.00D+00 EMaxC= 1.00D-01 BMatC= 8.96D-07 BMatP= 5.16D-05
 IDIUse=1 WtCom= 1.00D+00 WtEn= 0.00D+00
 Coeff-Com: -0.172D-02 0.252D-02 0.149D-01 0.401D-01 0.140D+00 0.210D+00
 Coeff-Com:  0.594D+00
 Coeff:     -0.172D-02 0.252D-02 0.149D-01 0.401D-01 0.140D+00 0.210D+00
 Coeff:      0.594D+00
 Gap=     0.212 Goal=   None    Shift=    0.000
 RMSDP=1.60D-05 MaxDP=2.52D-03 DE=-3.66D-05 OVMax= 1.46D-04

 Cycle   8  Pass 1  IDiag  1:
 E= -880.932294366240     Delta-E=       -0.000000687727 Rises=F Damp=F
 DIIS: error= 1.31D-05 at cycle   8 NSaved=   8.
 NSaved= 8 IEnMin= 8 EnMin= -880.932294366240     IErMin= 8 ErrMin= 1.31D-05
 ErrMax= 1.31D-05  0.00D+00 EMaxC= 1.00D-01 BMatC= 1.03D-07 BMatP= 8.96D-07
 IDIUse=1 WtCom= 1.00D+00 WtEn= 0.00D+00
 Coeff-Com: -0.305D-04-0.180D-03 0.151D-03 0.279D-02 0.154D-01 0.333D-01
 Coeff-Com:  0.269D+00 0.679D+00
 Coeff:     -0.305D-04-0.180D-03 0.151D-03 0.279D-02 0.154D-01 0.333D-01
 Coeff:      0.269D+00 0.679D+00
 Gap=     0.212 Goal=   None    Shift=    0.000
 RMSDP=7.13D-06 MaxDP=1.09D-03 DE=-6.88D-07 OVMax= 5.18D-05

 Cycle   9  Pass 1  IDiag  1:
 E= -880.932294434886     Delta-E=       -0.000000068647 Rises=F Damp=F
 DIIS: error= 4.25D-06 at cycle   9 NSaved=   9.
 NSaved= 9 IEnMin= 9 EnMin= -880.932294434886     IErMin= 9 ErrMin= 4.25D-06
 ErrMax= 4.25D-06  0.00D+00 EMaxC= 1.00D-01 BMatC= 1.66D-08 BMatP= 1.03D-07
 IDIUse=1 WtCom= 1.00D+00 WtEn= 0.00D+00
 Coeff-Com:  0.735D-04-0.226D-03-0.810D-03-0.932D-03-0.982D-03 0.308D-02
 Coeff-Com:  0.994D-01 0.365D+00 0.535D+00
 Coeff:      0.735D-04-0.226D-03-0.810D-03-0.932D-03-0.982D-03 0.308D-02
 Coeff:      0.994D-01 0.365D+00 0.535D+00
 Gap=     0.212 Goal=   None    Shift=    0.000
 RMSDP=1.72D-06 MaxDP=2.27D-04 DE=-6.86D-08 OVMax= 2.10D-05

 Cycle  10  Pass 1  IDiag  1:
 E= -880.932294446317     Delta-E=       -0.000000011430 Rises=F Damp=F
 DIIS: error= 1.02D-06 at cycle  10 NSaved=  10.
 NSaved=10 IEnMin=10 EnMin= -880.932294446317     IErMin=10 ErrMin= 1.02D-06
 ErrMax= 1.02D-06  0.00D+00 EMaxC= 1.00D-01 BMatC= 1.05D-09 BMatP= 1.66D-08
 IDIUse=1 WtCom= 1.00D+00 WtEn= 0.00D+00
 Coeff-Com:  0.434D-04-0.945D-04-0.471D-03-0.876D-03-0.259D-02-0.291D-02
 Coeff-Com:  0.174D-01 0.976D-01 0.247D+00 0.645D+00
 Coeff:      0.434D-04-0.945D-04-0.471D-03-0.876D-03-0.259D-02-0.291D-02
 Coeff:      0.174D-01 0.976D-01 0.247D+00 0.645D+00
 Gap=     0.212 Goal=   None    Shift=    0.000
 RMSDP=8.99D-07 MaxDP=1.42D-04 DE=-1.14D-08 OVMax= 5.25D-06

 Cycle  11  Pass 1  IDiag  1:
 E= -880.932294447125     Delta-E=       -0.000000000809 Rises=F Damp=F
 DIIS: error= 1.91D-07 at cycle  11 NSaved=  11.
 NSaved=11 IEnMin=11 EnMin= -880.932294447125     IErMin=11 ErrMin= 1.91D-07
 ErrMax= 1.91D-07  0.00D+00 EMaxC= 1.00D-01 BMatC= 4.78D-11 BMatP= 1.05D-09
 IDIUse=1 WtCom= 1.00D+00 WtEn= 0.00D+00
 Coeff-Com:  0.107D-04-0.208D-04-0.130D-03-0.262D-03-0.863D-03-0.121D-02
 Coeff-Com:  0.118D-02 0.163D-01 0.612D-01 0.248D+00 0.676D+00
 Coeff:      0.107D-04-0.208D-04-0.130D-03-0.262D-03-0.863D-03-0.121D-02
 Coeff:      0.118D-02 0.163D-01 0.612D-01 0.248D+00 0.676D+00
 Gap=     0.212 Goal=   None    Shift=    0.000
 RMSDP=1.50D-07 MaxDP=2.02D-05 DE=-8.09D-10 OVMax= 1.69D-06

 Cycle  12  Pass 1  IDiag  1:
 E= -880.932294447172     Delta-E=       -0.000000000047 Rises=F Damp=F
 DIIS: error= 8.73D-08 at cycle  12 NSaved=  12.
 NSaved=12 IEnMin=12 EnMin= -880.932294447172     IErMin=12 ErrMin= 8.73D-08
 ErrMax= 8.73D-08  0.00D+00 EMaxC= 1.00D-01 BMatC= 1.01D-11 BMatP= 4.78D-11
 IDIUse=1 WtCom= 1.00D+00 WtEn= 0.00D+00
 Coeff-Com:  0.890D-06-0.632D-06-0.198D-04-0.472D-04-0.180D-03-0.324D-03
 Coeff-Com: -0.129D-02-0.209D-02 0.550D-02 0.617D-01 0.363D+00 0.574D+00
 Coeff:      0.890D-06-0.632D-06-0.198D-04-0.472D-04-0.180D-03-0.324D-03
 Coeff:     -0.129D-02-0.209D-02 0.550D-02 0.617D-01 0.363D+00 0.574D+00
 Gap=     0.212 Goal=   None    Shift=    0.000
 RMSDP=4.70D-08 MaxDP=5.50D-06 DE=-4.73D-11 OVMax= 6.47D-07

 Cycle  13  Pass 1  IDiag  1:
 E= -880.932294447159     Delta-E=        0.000000000013 Rises=F Damp=F
 DIIS: error= 1.79D-08 at cycle  13 NSaved=  13.
 NSaved=13 IEnMin=12 EnMin= -880.932294447172     IErMin=13 ErrMin= 1.79D-08
 ErrMax= 1.79D-08  0.00D+00 EMaxC= 1.00D-01 BMatC= 5.30D-13 BMatP= 1.01D-11
 IDIUse=1 WtCom= 1.00D+00 WtEn= 0.00D+00
 Coeff-Com: -0.482D-06 0.138D-05 0.215D-05 0.177D-05-0.187D-05-0.206D-04
 Coeff-Com: -0.626D-03-0.212D-02-0.266D-02 0.249D-02 0.870D-01 0.243D+00
 Coeff-Com:  0.673D+00
 Coeff:     -0.482D-06 0.138D-05 0.215D-05 0.177D-05-0.187D-05-0.206D-04
 Coeff:     -0.626D-03-0.212D-02-0.266D-02 0.249D-02 0.870D-01 0.243D+00
 Coeff:      0.673D+00
 Gap=     0.212 Goal=   None    Shift=    0.000
 RMSDP=2.08D-08 MaxDP=3.20D-06 DE= 1.32D-11 OVMax= 1.72D-07

 Cycle  14  Pass 1  IDiag  1:
 E= -880.932294447151     Delta-E=        0.000000000008 Rises=F Damp=F
 DIIS: error= 5.77D-09 at cycle  14 NSaved=  14.
 NSaved=14 IEnMin=12 EnMin= -880.932294447172     IErMin=14 ErrMin= 5.77D-09
 ErrMax= 5.77D-09  0.00D+00 EMaxC= 1.00D-01 BMatC= 4.51D-14 BMatP= 5.30D-13
 IDIUse=1 WtCom= 1.00D+00 WtEn= 0.00D+00
 Coeff-Com: -0.266D-06 0.650D-06 0.224D-05 0.367D-05 0.108D-04 0.121D-04
 Coeff-Com: -0.218D-03-0.864D-03-0.160D-02-0.325D-02 0.153D-01 0.726D-01
 Coeff-Com:  0.305D+00 0.613D+00
 Coeff:     -0.266D-06 0.650D-06 0.224D-05 0.367D-05 0.108D-04 0.121D-04
 Coeff:     -0.218D-03-0.864D-03-0.160D-02-0.325D-02 0.153D-01 0.726D-01
 Coeff:      0.305D+00 0.613D+00
 Gap=     0.212 Goal=   None    Shift=    0.000
 RMSDP=1.49D-08 MaxDP=2.84D-06 DE= 8.19D-12 OVMax= 4.79D-08

 Cycle  15  Pass 1  IDiag  1:
 E= -880.932294447157     Delta-E=       -0.000000000006 Rises=F Damp=F
 DIIS: error= 1.84D-09 at cycle  15 NSaved=  15.
 NSaved=15 IEnMin=12 EnMin= -880.932294447172     IErMin=15 ErrMin= 1.84D-09
 ErrMax= 1.84D-09  0.00D+00 EMaxC= 1.00D-01 BMatC= 4.30D-15 BMatP= 4.51D-14
 IDIUse=1 WtCom= 1.00D+00 WtEn= 0.00D+00
 Coeff-Com: -0.630D-07 0.143D-06 0.723D-06 0.131D-05 0.475D-05 0.690D-05
 Coeff-Com: -0.299D-04-0.144D-03-0.387D-03-0.161D-02-0.182D-02 0.756D-02
 Coeff-Com:  0.671D-01 0.280D+00 0.649D+00
 Coeff:     -0.630D-07 0.143D-06 0.723D-06 0.131D-05 0.475D-05 0.690D-05
 Coeff:     -0.299D-04-0.144D-03-0.387D-03-0.161D-02-0.182D-02 0.756D-02
 Coeff:      0.671D-01 0.280D+00 0.649D+00
 Gap=     0.212 Goal=   None    Shift=    0.000
 RMSDP=6.35D-09 MaxDP=9.38D-07 DE=-6.37D-12 OVMax= 1.54D-08

 SCF Done:  E(RPBE1PBE) =  -880.932294447     A.U. after   15 cycles
            NFock= 15  Conv=0.64D-08     -V/T= 2.0035
 KE= 8.778352266456D+02 PE=-4.975607259963D+03 EE= 1.750619552551D+03
 Leave Link  502 at Thu Jul  6 15:22:36 2017, MaxMem= 13421772800 cpu:      1140.7
 (Enter /share/apps//g09/l601.exe)
 Copying SCF densities to generalized density rwf, IOpCl= 0 IROHF=0.

 **********************************************************************

            Population analysis using the SCF density.

 **********************************************************************

 Orbital symmetries:
       Occupied  (A) (A) (A) (A) (A) (A) (A) (A) (A) (A) (A) (A)
                 (A) (A) (A) (A) (A) (A) (A) (A) (A) (A) (A) (A)
                 (A) (A) (A) (A) (A) (A) (A) (A) (A) (A) (A) (A)
                 (A) (A) (A) (A) (A) (A) (A) (A) (A) (A) (A) (A)
                 (A) (A) (A) (A) (A) (A) (A) (A) (A) (A) (A) (A)
                 (A) (A) (A) (A) (A) (A)
       Virtual   (A) (A) (A) (A) (A) (A) (A) (A) (A) (A) (A) (A)
                 (A) (A) (A) (A) (A) (A) (A) (A) (A) (A) (A) (A)
                 (A) (A) (A) (A) (A) (A) (A) (A) (A) (A) (A) (A)
                 (A) (A) (A) (A) (A) (A) (A) (A) (A) (A) (A) (A)
                 (A) (A) (A) (A) (A) (A) (A) (A) (A) (A) (A) (A)
                 (A) (A) (A) (A) (A) (A) (A) (A) (A) (A) (A) (A)
                 (A) (A) (A) (A) (A) (A) (A) (A) (A) (A) (A) (A)
                 (A) (A) (A) (A) (A) (A) (A) (A) (A) (A) (A) (A)
                 (A) (A) (A) (A) (A) (A) (A) (A) (A) (A) (A) (A)
                 (A) (A) (A) (A) (A) (A) (A) (A) (A) (A) (A) (A)
                 (A) (A) (A) (A) (A) (A) (A) (A) (A) (A) (A) (A)
                 (A) (A) (A) (A) (A) (A) (A) (A) (A) (A) (A) (A)
                 (A) (A) (A) (A) (A) (A) (A) (A) (A) (A) (A) (A)
                 (A) (A) (A) (A) (A) (A) (A) (A) (A) (A) (A) (A)
                 (A) (A) (A) (A) (A) (A) (A) (A) (A) (A) (A) (A)
                 (A) (A) (A) (A) (A) (A) (A) (A) (A) (A) (A) (A)
                 (A) (A) (A) (A) (A) (A) (A) (A) (A) (A) (A) (A)
                 (A) (A) (A) (A) (A) (A) (A) (A) (A) (A) (A) (A)
                 (A) (A) (A) (A) (A) (A) (A) (A) (A) (A) (A) (A)
                 (A) (A) (A) (A) (A) (A) (A) (A) (A) (A) (A) (A)
                 (A) (A) (A) (A) (A) (A) (A) (A) (A) (A) (A) (A)
                 (A) (A) (A) (A) (A) (A) (A) (A) (A) (A) (A) (A)
                 (A) (A) (A) (A) (A) (A) (A) (A) (A) (A) (A) (A)
                 (A) (A) (A) (A) (A) (A) (A) (A) (A) (A) (A) (A)
                 (A) (A) (A) (A) (A) (A) (A) (A) (A) (A) (A) (A)
                 (A) (A) (A) (A) (A) (A) (A) (A) (A) (A) (A) (A)
                 (A) (A) (A) (A) (A) (A) (A) (A) (A) (A) (A) (A)
                 (A) (A) (A) (A) (A) (A) (A) (A) (A) (A) (A) (A)
                 (A) (A) (A) (A) (A) (A) (A) (A) (A) (A) (A) (A)
                 (A) (A) (A) (A) (A) (A) (A) (A) (A) (A) (A) (A)
                 (A) (A) (A) (A) (A) (A) (A) (A) (A) (A) (A) (A)
                 (A) (A) (A) (A) (A) (A) (A) (A) (A) (A) (A) (A)
                 (A) (A) (A) (A) (A) (A) (A) (A) (A) (A) (A) (A)
                 (A) (A) (A) (A) (A) (A) (A) (A) (A) (A) (A) (A)
                 (A) (A) (A) (A) (A) (A) (A) (A) (A) (A) (A) (A)
                 (A) (A)
 The electronic state is 1-A.
 Alpha  occ. eigenvalues --  -19.45023 -19.44598 -19.39198 -19.35578 -19.35392
 Alpha  occ. eigenvalues --  -19.34336 -10.56947 -10.50393 -10.46342 -10.44630
 Alpha  occ. eigenvalues --  -10.43604 -10.43491 -10.40967 -10.38623 -10.38452
 Alpha  occ. eigenvalues --  -10.38396 -10.37733  -1.36885  -1.29157  -1.26267
 Alpha  occ. eigenvalues --   -1.22634  -1.21349  -1.20490  -1.01811  -0.98809
 Alpha  occ. eigenvalues --   -0.94998  -0.90437  -0.88190  -0.85704  -0.83583
 Alpha  occ. eigenvalues --   -0.81412  -0.79078  -0.78063  -0.77035  -0.72913
 Alpha  occ. eigenvalues --   -0.71756  -0.67833  -0.67076  -0.66579  -0.65897
 Alpha  occ. eigenvalues --   -0.64636  -0.63968  -0.62813  -0.62634  -0.61375
 Alpha  occ. eigenvalues --   -0.60880  -0.59891  -0.58492  -0.58077  -0.57593
 Alpha  occ. eigenvalues --   -0.56892  -0.56487  -0.55401  -0.55070  -0.53673
 Alpha  occ. eigenvalues --   -0.53178  -0.52630  -0.51607  -0.49115  -0.48136
 Alpha  occ. eigenvalues --   -0.47095  -0.46750  -0.46255  -0.42707  -0.40995
 Alpha  occ. eigenvalues --   -0.40673
 Alpha virt. eigenvalues --   -0.19451  -0.11394  -0.09988  -0.09612  -0.08638
 Alpha virt. eigenvalues --   -0.08169  -0.07595  -0.06683  -0.06548  -0.06340
 Alpha virt. eigenvalues --   -0.05922  -0.05423  -0.04980  -0.04683  -0.04225
 Alpha virt. eigenvalues --   -0.03583  -0.03546  -0.03159  -0.03080  -0.02676
 Alpha virt. eigenvalues --   -0.02150  -0.01496  -0.01365  -0.00939  -0.00256
 Alpha virt. eigenvalues --    0.00263   0.00506   0.00798   0.01577   0.02077
 Alpha virt. eigenvalues --    0.02465   0.02815   0.03059   0.03429   0.03694
 Alpha virt. eigenvalues --    0.04512   0.04613   0.05094   0.05609   0.05728
 Alpha virt. eigenvalues --    0.06195   0.06379   0.06560   0.06887   0.07382
 Alpha virt. eigenvalues --    0.07593   0.07982   0.08304   0.08863   0.09257
 Alpha virt. eigenvalues --    0.09489   0.09835   0.10490   0.10886   0.11172
 Alpha virt. eigenvalues --    0.11534   0.11674   0.12179   0.12399   0.12487
 Alpha virt. eigenvalues --    0.13345   0.13586   0.13833   0.14235   0.14381
 Alpha virt. eigenvalues --    0.15076   0.15376   0.15883   0.16361   0.16724
 Alpha virt. eigenvalues --    0.17505   0.17950   0.18355   0.18401   0.19074
 Alpha virt. eigenvalues --    0.20118   0.20380   0.20783   0.21049   0.21561
 Alpha virt. eigenvalues --    0.21876   0.22836   0.23548   0.23724   0.24020
 Alpha virt. eigenvalues --    0.24207   0.24496   0.25034   0.25720   0.25931
 Alpha virt. eigenvalues --    0.26146   0.26729   0.27232   0.28168   0.28835
 Alpha virt. eigenvalues --    0.29076   0.30134   0.30446   0.30974   0.31415
 Alpha virt. eigenvalues --    0.32490   0.33272   0.33771   0.34907   0.35569
 Alpha virt. eigenvalues --    0.36007   0.37375   0.37876   0.38077   0.38907
 Alpha virt. eigenvalues --    0.39574   0.40827   0.41759   0.42360   0.43262
 Alpha virt. eigenvalues --    0.43773   0.44781   0.45283   0.46072   0.46645
 Alpha virt. eigenvalues --    0.47590   0.48263   0.49061   0.49395   0.49581
 Alpha virt. eigenvalues --    0.51023   0.51339   0.52348   0.53056   0.54019
 Alpha virt. eigenvalues --    0.54418   0.55311   0.55658   0.56624   0.56885
 Alpha virt. eigenvalues --    0.57179   0.57775   0.58076   0.58304   0.58731
 Alpha virt. eigenvalues --    0.59142   0.59977   0.60760   0.61335   0.61820
 Alpha virt. eigenvalues --    0.62780   0.63466   0.64072   0.64754   0.64853
 Alpha virt. eigenvalues --    0.65302   0.66986   0.68663   0.69347   0.71289
 Alpha virt. eigenvalues --    0.71657   0.73860   0.77576   0.79789   0.82001
 Alpha virt. eigenvalues --    0.84117   0.86095   0.87247   0.87655   0.88849
 Alpha virt. eigenvalues --    0.91432   0.92194   0.93280   0.94618   0.96558
 Alpha virt. eigenvalues --    0.96951   0.98153   0.99257   1.00359   1.01518
 Alpha virt. eigenvalues --    1.02181   1.03456   1.04703   1.05256   1.06212
 Alpha virt. eigenvalues --    1.08753   1.10684   1.11749   1.13086   1.15745
 Alpha virt. eigenvalues --    1.16982   1.17917   1.18572   1.19569   1.20448
 Alpha virt. eigenvalues --    1.22548   1.24669   1.24822   1.25815   1.27081
 Alpha virt. eigenvalues --    1.27881   1.28926   1.30074   1.30941   1.31554
 Alpha virt. eigenvalues --    1.32443   1.32658   1.34481   1.34701   1.34769
 Alpha virt. eigenvalues --    1.36098   1.37551   1.40485   1.41074   1.42070
 Alpha virt. eigenvalues --    1.42919   1.43562   1.44260   1.45069   1.45639
 Alpha virt. eigenvalues --    1.46117   1.46828   1.47183   1.47850   1.48259
 Alpha virt. eigenvalues --    1.48821   1.49506   1.49780   1.50727   1.51444
 Alpha virt. eigenvalues --    1.51899   1.52861   1.54333   1.55075   1.56133
 Alpha virt. eigenvalues --    1.57340   1.57709   1.58794   1.58984   1.59676
 Alpha virt. eigenvalues --    1.60772   1.61610   1.62523   1.63141   1.64025
 Alpha virt. eigenvalues --    1.64702   1.66513   1.67071   1.68208   1.68654
 Alpha virt. eigenvalues --    1.69515   1.70905   1.72656   1.73180   1.75866
 Alpha virt. eigenvalues --    1.77044   1.77365   1.79346   1.81956   1.82961
 Alpha virt. eigenvalues --    1.84012   1.85658   1.86448   1.87610   1.89983
 Alpha virt. eigenvalues --    1.91859   1.92451   1.92643   1.95530   1.96086
 Alpha virt. eigenvalues --    1.98300   1.98823   2.00862   2.01223   2.02546
 Alpha virt. eigenvalues --    2.03757   2.04838   2.06811   2.07659   2.08382
 Alpha virt. eigenvalues --    2.09765   2.10721   2.11601   2.13035   2.14097
 Alpha virt. eigenvalues --    2.17194   2.18140   2.19193   2.20560   2.22950
 Alpha virt. eigenvalues --    2.25277   2.33232   2.34010   2.34359   2.35197
 Alpha virt. eigenvalues --    2.36373   2.38357   2.39805   2.40078   2.41449
 Alpha virt. eigenvalues --    2.42761   2.43016   2.43445   2.44059   2.44822
 Alpha virt. eigenvalues --    2.45307   2.46624   2.46832   2.47242   2.47897
 Alpha virt. eigenvalues --    2.49348   2.49570   2.50659   2.52154   2.53013
 Alpha virt. eigenvalues --    2.55518   2.56417   2.59854   2.60298   2.62460
 Alpha virt. eigenvalues --    2.64271   2.67604   2.68549   2.72446   2.73327
 Alpha virt. eigenvalues --    2.73956   2.75252   2.75663   2.78282   2.79135
 Alpha virt. eigenvalues --    2.81552   2.82641   2.84217   2.88113   2.88942
 Alpha virt. eigenvalues --    2.89671   2.90421   2.92809   2.94175   2.95870
 Alpha virt. eigenvalues --    2.97010   2.97822   2.99495   3.02146   3.02671
 Alpha virt. eigenvalues --    3.03683   3.04884   3.07279   3.08529   3.08844
 Alpha virt. eigenvalues --    3.10873   3.11744   3.13501   3.15132   3.15461
 Alpha virt. eigenvalues --    3.17626   3.18401   3.18896   3.22548   3.23689
 Alpha virt. eigenvalues --    3.27443   3.31037   3.33025   3.37711   3.41345
 Alpha virt. eigenvalues --    3.53248   3.66537   3.69061   3.69467   3.69544
 Alpha virt. eigenvalues --    3.70251   3.70506   3.72452   3.72687   3.73564
 Alpha virt. eigenvalues --    3.76247   3.81420   3.85216   3.90709   3.95732
 Alpha virt. eigenvalues --    3.95971   3.97266   3.99980   4.02478   4.06792
 Alpha virt. eigenvalues --    4.08768   4.09880   4.12447   4.16545   4.17056
 Alpha virt. eigenvalues --    4.23137   4.30063   4.94993   4.98113   5.01914
 Alpha virt. eigenvalues --    5.03761   5.06073   5.08912   5.18046   5.24781
 Alpha virt. eigenvalues --    5.31039   5.34365   5.36472   5.40096   5.51953
 Alpha virt. eigenvalues --    5.62083   5.62442   5.65417   5.68090   5.88831
 Alpha virt. eigenvalues --   23.71611  23.78625  23.79152  23.80119  23.81142
 Alpha virt. eigenvalues --   23.84726  23.90296  23.91690  23.92431  23.93463
 Alpha virt. eigenvalues --   23.94650  49.89661  49.92560  49.96394  49.97422
 Alpha virt. eigenvalues --   49.99311  50.02817
          Condensed to atoms (all electrons):
               1          2          3          4          5          6
     1  C    9.312437  -2.791171   1.316695  -1.272146  -0.675279   0.505018
     2  C   -2.791171  13.334303  -6.976810   3.684888  -0.803065  -1.713848
     3  C    1.316695  -6.976810  18.841161 -10.072954   4.399917  -1.924358
     4  C   -1.272146   3.684888 -10.072954  20.829744 -10.238007   4.154279
     5  C   -0.675279  -0.803065   4.399917 -10.238007  22.206249  -9.261898
     6  C    0.505018  -1.713848  -1.924358   4.154279  -9.261898  16.517453
     7  O   -0.210937   0.385839  -0.244030   0.128801  -0.006955   0.173826
     8  O    0.028461   0.009091   0.000738   0.141033  -0.142760  -0.047703
     9  O   -0.036055   0.064871  -0.241298   0.316724  -0.366769   0.404982
    10  O    0.062960  -0.089491   0.095421  -0.043432   0.043043  -0.058207
    11  H    0.395848   0.039709  -0.072854   0.011233   0.002060  -0.013618
    12  H    0.362626  -0.014559   0.037432  -0.001370   0.001278   0.000999
    13  H   -0.053413   0.313547   0.090189  -0.051888   0.031247  -0.003010
    14  H   -0.020635   0.028107   0.339992  -0.002908   0.050263  -0.042321
    15  H    0.023209  -0.063850   0.157792   0.344807  -0.161397   0.055725
    16  H    0.007803  -0.007161   0.030907   0.027127   0.247300   0.017615
    17  H   -0.003716   0.019554   0.048399  -0.084318   0.165301   0.150892
    18  O    0.038809   0.004167   0.046210  -0.198045   0.249868   0.022917
    19  C   -0.009535  -0.149070   0.040861  -0.033676   0.005539   0.011067
    20  H    0.004495   0.023355  -0.006261   0.000447  -0.000078  -0.001763
    21  H    0.017697  -0.034089   0.001011  -0.000448  -0.001595   0.005089
    22  H   -0.011278   0.010023   0.000553  -0.000176   0.000613  -0.003172
    23  C    0.010948  -0.070978   0.132378  -0.238547  -0.224688   0.199897
    24  H    0.000818   0.013645  -0.004556  -0.014905  -0.010245   0.001913
    25  H    0.000364  -0.004261  -0.001154   0.039487  -0.054881   0.014160
    26  H   -0.000317  -0.003530  -0.000099   0.000208   0.031557   0.001527
    27  C   -0.019484  -0.015665  -0.103697  -0.348698   0.253434  -0.040634
    28  H    0.001417  -0.005902   0.066636  -0.032809  -0.016090   0.004299
    29  H   -0.000376   0.003424  -0.041768  -0.100797   0.079858  -0.000957
    30  H   -0.000016  -0.001420  -0.000533   0.061583  -0.010167   0.000577
    31  C   -0.277921   0.996070  -0.758888  -0.072353   0.446678  -2.267666
    32  O    0.090380   0.035492   0.122668  -0.229511   0.154599   0.039442
    33  C   -0.042161  -0.093005   0.151417   0.219322  -0.463638  -0.343018
    34  H    0.003496   0.002829  -0.003705  -0.001257  -0.001686   0.000643
    35  H   -0.003292  -0.010306   0.011358  -0.003016   0.003286  -0.006274
    36  H   -0.000494   0.001444   0.000093  -0.005687   0.003886  -0.004302
               7          8          9         10         11         12
     1  C   -0.210937   0.028461  -0.036055   0.062960   0.395848   0.362626
     2  C    0.385839   0.009091   0.064871  -0.089491   0.039709  -0.014559
     3  C   -0.244030   0.000738  -0.241298   0.095421  -0.072854   0.037432
     4  C    0.128801   0.141033   0.316724  -0.043432   0.011233  -0.001370
     5  C   -0.006955  -0.142760  -0.366769   0.043043   0.002060   0.001278
     6  C    0.173826  -0.047703   0.404982  -0.058207  -0.013618   0.000999
     7  O    7.824363  -0.007129   0.058408   0.013351   0.019356  -0.025659
     8  O   -0.007129   7.973549   0.004284   0.003877  -0.000028   0.000060
     9  O    0.058408   0.004284   7.869852  -0.011807   0.002715  -0.001735
    10  O    0.013351   0.003877  -0.011807   8.288274  -0.062233  -0.048823
    11  H    0.019356  -0.000028   0.002715  -0.062233   0.520467  -0.042131
    12  H   -0.025659   0.000060  -0.001735  -0.048823  -0.042131   0.506679
    13  H   -0.042217   0.001173   0.004668   0.009647  -0.004935  -0.003452
    14  H    0.005693   0.003935  -0.066953  -0.001858   0.003191   0.000001
    15  H   -0.001715  -0.034067   0.006721   0.000085  -0.000008  -0.000019
    16  H    0.009190   0.001900   0.008211  -0.000164  -0.000002  -0.000004
    17  H   -0.059093   0.001007  -0.011120   0.000706   0.000018  -0.000105
    18  O    0.000184   0.002135  -0.005596   0.000363  -0.000065   0.000131
    19  C   -0.010627   0.000650  -0.005176   0.071461  -0.008067   0.001794
    20  H   -0.000126   0.000004  -0.000745  -0.056951  -0.000438   0.000030
    21  H   -0.000561   0.000001  -0.000891  -0.064880  -0.003487   0.014565
    22  H    0.000125   0.000003   0.000047  -0.051747   0.010037  -0.004055
    23  C   -0.003341   0.008317   0.003600   0.000029  -0.000086   0.000033
    24  H    0.001404  -0.000213  -0.000058  -0.000024  -0.000000  -0.000002
    25  H   -0.000096   0.000557   0.000094   0.000001   0.000000  -0.000000
    26  H   -0.000318   0.000007  -0.000004  -0.000001  -0.000000   0.000000
    27  C    0.000926   0.148934   0.006883   0.000639  -0.000224   0.000057
    28  H   -0.000056  -0.046168   0.000293  -0.000001  -0.000000  -0.000000
    29  H   -0.000114  -0.018244  -0.000515  -0.000001   0.000000  -0.000000
    30  H   -0.000035  -0.074834  -0.000470   0.000003   0.000000   0.000000
    31  C   -0.004977   0.050118   0.201998   0.137866   0.004788   0.001258
    32  O   -0.069384   0.021724  -0.133305   0.021350  -0.000522   0.000701
    33  C   -0.029367  -0.034706  -0.387737  -0.149121  -0.001863  -0.002472
    34  H    0.000070   0.000251  -0.015217   0.000534  -0.000001  -0.000002
    35  H   -0.000040   0.000046  -0.000075  -0.000425   0.000045   0.000025
    36  H    0.000012   0.000013   0.017153   0.000274  -0.000000   0.000002
              13         14         15         16         17         18
     1  C   -0.053413  -0.020635   0.023209   0.007803  -0.003716   0.038809
     2  C    0.313547   0.028107  -0.063850  -0.007161   0.019554   0.004167
     3  C    0.090189   0.339992   0.157792   0.030907   0.048399   0.046210
     4  C   -0.051888  -0.002908   0.344807   0.027127  -0.084318  -0.198045
     5  C    0.031247   0.050263  -0.161397   0.247300   0.165301   0.249868
     6  C   -0.003010  -0.042321   0.055725   0.017615   0.150892   0.022917
     7  O   -0.042217   0.005693  -0.001715   0.009190  -0.059093   0.000184
     8  O    0.001173   0.003935  -0.034067   0.001900   0.001007   0.002135
     9  O    0.004668  -0.066953   0.006721   0.008211  -0.011120  -0.005596
    10  O    0.009647  -0.001858   0.000085  -0.000164   0.000706   0.000363
    11  H   -0.004935   0.003191  -0.000008  -0.000002   0.000018  -0.000065
    12  H   -0.003452   0.000001  -0.000019  -0.000004  -0.000105   0.000131
    13  H    0.461281  -0.002912   0.003398  -0.000217   0.000422  -0.003047
    14  H   -0.002912   0.428743  -0.008625  -0.000136   0.000122  -0.001419
    15  H    0.003398  -0.008625   0.429919   0.001550  -0.000105  -0.007103
    16  H   -0.000217  -0.000136   0.001550   0.481099  -0.006059  -0.041630
    17  H    0.000422   0.000122  -0.000105  -0.006059   0.472561  -0.007090
    18  O   -0.003047  -0.001419  -0.007103  -0.041630  -0.007090   7.832585
    19  C   -0.000936   0.000112   0.000160  -0.000109  -0.000236   0.000294
    20  H    0.000011   0.000006   0.000000   0.000000   0.000002   0.000000
    21  H    0.000009   0.000015   0.000000   0.000000  -0.000006   0.000001
    22  H   -0.000023  -0.000009  -0.000000   0.000000   0.000002  -0.000000
    23  C   -0.001038  -0.000894   0.004232   0.000729  -0.014506   0.181099
    24  H   -0.000080  -0.000001  -0.000046  -0.004748   0.004957  -0.039082
    25  H    0.000016  -0.000001   0.000167   0.015711  -0.000870  -0.040217
    26  H   -0.000001  -0.000001  -0.000080   0.000044  -0.000284  -0.058041
    27  C    0.002092   0.000241  -0.000536   0.004720   0.000124  -0.013423
    28  H    0.000008  -0.000420   0.011136  -0.000266  -0.000011   0.001333
    29  H    0.000006   0.000145  -0.002432   0.004956   0.000060  -0.004890
    30  H   -0.000001  -0.000067  -0.000381  -0.000899  -0.000001   0.000352
    31  C    0.004688   0.037180  -0.015367  -0.017182   0.092715  -0.030688
    32  O   -0.002605  -0.004210   0.001185   0.014736  -0.063781   0.024505
    33  C    0.003788   0.011647  -0.003952  -0.028165   0.031406  -0.002658
    34  H   -0.000002   0.000021   0.000007   0.000040   0.000010  -0.000008
    35  H    0.000010  -0.000011   0.000002  -0.000009   0.000005   0.000003
    36  H   -0.000000   0.000016  -0.000001   0.000025   0.000046   0.000024
              19         20         21         22         23         24
     1  C   -0.009535   0.004495   0.017697  -0.011278   0.010948   0.000818
     2  C   -0.149070   0.023355  -0.034089   0.010023  -0.070978   0.013645
     3  C    0.040861  -0.006261   0.001011   0.000553   0.132378  -0.004556
     4  C   -0.033676   0.000447  -0.000448  -0.000176  -0.238547  -0.014905
     5  C    0.005539  -0.000078  -0.001595   0.000613  -0.224688  -0.010245
     6  C    0.011067  -0.001763   0.005089  -0.003172   0.199897   0.001913
     7  O   -0.010627  -0.000126  -0.000561   0.000125  -0.003341   0.001404
     8  O    0.000650   0.000004   0.000001   0.000003   0.008317  -0.000213
     9  O   -0.005176  -0.000745  -0.000891   0.000047   0.003600  -0.000058
    10  O    0.071461  -0.056951  -0.064880  -0.051747   0.000029  -0.000024
    11  H   -0.008067  -0.000438  -0.003487   0.010037  -0.000086  -0.000000
    12  H    0.001794   0.000030   0.014565  -0.004055   0.000033  -0.000002
    13  H   -0.000936   0.000011   0.000009  -0.000023  -0.001038  -0.000080
    14  H    0.000112   0.000006   0.000015  -0.000009  -0.000894  -0.000001
    15  H    0.000160   0.000000   0.000000  -0.000000   0.004232  -0.000046
    16  H   -0.000109   0.000000   0.000000   0.000000   0.000729  -0.004748
    17  H   -0.000236   0.000002  -0.000006   0.000002  -0.014506   0.004957
    18  O    0.000294   0.000000   0.000001  -0.000000   0.181099  -0.039082
    19  C    5.126039   0.402320   0.436326   0.416406   0.000530   0.000004
    20  H    0.402320   0.501416  -0.020747  -0.024326  -0.000004  -0.000000
    21  H    0.436326  -0.020747   0.519998  -0.039663  -0.000001   0.000000
    22  H    0.416406  -0.024326  -0.039663   0.523307  -0.000004  -0.000000
    23  C    0.000530  -0.000004  -0.000001  -0.000004   5.193349   0.411475
    24  H    0.000004  -0.000000   0.000000  -0.000000   0.411475   0.539174
    25  H   -0.000001   0.000000  -0.000000  -0.000000   0.401459  -0.043186
    26  H   -0.000001  -0.000000   0.000000  -0.000000   0.408916  -0.022568
    27  C   -0.000257   0.000004  -0.000000  -0.000001  -0.001129  -0.000792
    28  H    0.000004  -0.000000  -0.000000  -0.000000   0.002849   0.000003
    29  H    0.000003   0.000000  -0.000000   0.000000  -0.006874  -0.000057
    30  H    0.000002   0.000000   0.000000   0.000000   0.000311   0.000001
    31  C   -0.005834   0.007875  -0.001168   0.001685  -0.104189   0.005060
    32  O    0.003540  -0.000098   0.000019  -0.000073   0.006748  -0.002955
    33  C   -0.021502  -0.003436  -0.000253  -0.000250  -0.026886   0.001753
    34  H   -0.000289   0.000019   0.000000   0.000008  -0.000022   0.000000
    35  H    0.001651   0.000517  -0.000097  -0.000134  -0.000020  -0.000000
    36  H    0.000031  -0.000004   0.000002   0.000001   0.000098  -0.000001
              25         26         27         28         29         30
     1  C    0.000364  -0.000317  -0.019484   0.001417  -0.000376  -0.000016
     2  C   -0.004261  -0.003530  -0.015665  -0.005902   0.003424  -0.001420
     3  C   -0.001154  -0.000099  -0.103697   0.066636  -0.041768  -0.000533
     4  C    0.039487   0.000208  -0.348698  -0.032809  -0.100797   0.061583
     5  C   -0.054881   0.031557   0.253434  -0.016090   0.079858  -0.010167
[...]
 645603,0.00301514,-0.00139388,0.00124973,-0.00026013,0.00032693,-0.000
 04001,-0.00093306,-0.00027740,0.00006251,-0.00044864,0.00009861,-0.000
 01320,0.00032144,-0.00019891,0.00007035,-0.00011584,-0.00049855,0.0000
 9577,0.00012061,0.00001336,0.00004967,-0.00008374,-0.00009854,-0.00009
 804,-0.00430454,-0.00100808,0.00003437,0.00075794,-0.00011565,0.000229
 35,0.00109078,-0.00046904,0.00025028,0.00034017,0.00024256,0.00010963,
 -0.12264220,-0.01251825,0.76800980,0.00002358,0.00021832,-0.00076671,0
 .00173930,-0.00182662,0.00086610,-0.00436986,0.00301291,-0.00947921,-0
 .00193117,0.00102003,0.00425942,0.00570815,0.02265188,-0.00703765,-0.0
 6387972,0.00360064,0.00514701,-0.00129699,-0.03129722,0.02242519,0.000
 31578,-0.00192336,-0.00280227,0.00769910,0.03488806,0.03961437,-0.0007
 4873,-0.00046263,0.00007316,0.00017256,-0.00000031,0.00008240,-0.00011
 172,-0.00003418,-0.00000973,-0.00077020,-0.00026216,0.00054678,0.00067
 235,-0.00070313,0.00059611,0.00080222,0.00007226,-0.00019959,0.0015579
 8,-0.00025809,0.00056170,0.00206781,0.00600006,-0.00420467,-0.00493424
 ,0.00276804,-0.00865287,0.00068728,-0.00008361,0.00009121,0.00004622,0
 .00002389,0.00000606,-0.00012773,-0.00010012,-0.00000316,-0.00008029,0
 .00003357,0.00004830,0.00097564,-0.00284627,-0.00140120,0.00012880,-0.
 00014538,0.00060333,-0.00003026,0.00017977,0.00021577,-0.00015260,0.00
 024900,0.00006921,0.00024674,0.00014354,-0.00001213,-0.00013676,-0.000
 02090,-0.00013912,0.00028829,-0.00013653,0.00009268,0.00000342,0.00002
 112,0.00002661,-0.12812247,0.12558501,0.04528426,0.17795748,0.00137941
 ,-0.00141102,0.00316175,0.00239826,-0.01087493,-0.01678562,-0.00025725
 ,-0.01051623,0.02283341,-0.00039536,-0.00227817,-0.00509716,-0.0034782
 5,-0.01885975,0.00384671,0.03506809,-0.02282751,-0.02830278,-0.0509795
 9,-0.01495391,0.04231207,0.00026209,0.00353275,-0.00062806,0.03483993,
 -0.01812331,-0.06936906,0.00055375,0.00276229,-0.00077502,-0.00100870,
 0.00055847,-0.00019124,0.00092296,0.00049361,-0.00038325,0.00085105,0.
 00303193,0.00296663,-0.00031957,0.00216647,-0.00144392,-0.00193655,0.0
 0072767,0.00068769,0.00010867,0.00021997,0.00018410,0.00627202,-0.0348
 7815,0.02735845,0.00546612,-0.00027387,0.00688691,-0.00006790,0.000314
 17,-0.00005192,-0.00031572,-0.00001425,-0.00013898,0.00036241,0.000163
 69,-0.00000759,-0.00005584,-0.00005596,0.00000500,-0.00163988,0.002264
 63,0.00097590,0.00001648,0.00095658,-0.00031688,0.00009880,-0.00005997
 ,-0.00026080,0.00019994,-0.00002248,0.00022946,0.00125163,0.00009256,-
 0.00022634,-0.00022631,0.00002039,-0.00004453,-0.00058882,0.00015667,0
 .00007112,0.00005169,0.00006179,0.00008251,0.12378835,-0.36187247,-0.0
 4096785,-0.17763765,0.53228434,-0.00089294,0.00015241,-0.00024791,-0.0
 0301506,0.00280425,0.00124476,0.00071158,-0.00350550,0.00755203,0.0018
 9699,0.00081416,0.00187289,-0.00309416,0.02877062,-0.01423422,-0.00195
 692,-0.00764648,-0.07759342,0.02309284,0.02479277,-0.01688340,-0.00186
 039,-0.00081109,-0.00057967,0.03691612,-0.05745403,-0.02404949,0.00153
 195,-0.00015989,0.00075825,0.00008190,-0.00017187,0.00011076,-0.000072
 38,0.00000469,0.00010577,0.00019662,-0.00034786,-0.00072799,-0.0002057
 9,0.00009268,0.00020036,-0.00012854,0.00048034,0.00080912,-0.00102281,
 -0.00042743,0.00030633,0.00108175,-0.00793566,0.00780364,-0.00590627,0
 .00187362,-0.00420650,-0.00084670,0.00022507,-0.00021128,0.00011630,-0
 .00010647,0.00003247,0.00016104,0.00005978,-0.00003631,0.00009878,-0.0
 0000639,-0.00000325,0.00051899,-0.00282433,-0.00165410,0.00044569,0.00
 024046,0.00048159,-0.00029546,0.00023260,0.00013633,-0.00008144,0.0004
 6107,0.00033605,0.00075329,0.00003407,-0.00003904,-0.00014907,0.000028
 43,-0.00000948,-0.00007575,0.00009199,-0.00006655,-0.00009129,-0.00008
 381,-0.00007379,0.04878346,-0.06162802,-0.14897816,-0.08531283,0.05564
 584,0.25711611,-0.00016307,0.00009008,-0.00014443,-0.00051920,0.001416
 16,0.00054115,0.00420458,0.00239153,0.00283389,-0.00005958,-0.00046737
 ,0.00131821,-0.00000921,-0.00080370,0.00052741,0.00365004,-0.00283781,
 0.00705290,0.00252453,0.00103861,-0.00323611,-0.00012182,-0.00002166,-
 0.00034333,0.01203013,-0.00935139,0.00935179,0.00055164,-0.00029009,0.
 00027339,0.00006522,-0.00005569,0.00000565,0.00001133,-0.00004407,0.00
 003375,0.00001658,0.00000768,-0.00008752,0.00014512,-0.00052218,0.0005
 5212,0.00033916,-0.00000271,-0.00021019,0.00003300,-0.00005159,-0.0001
 0712,-0.00031352,0.00086044,-0.00082380,-0.00002781,0.00019992,0.00007
 019,-0.00025891,0.00014169,-0.00005227,0.00005347,-0.00001129,0.000024
 11,0.00005501,0.00000956,-0.00000863,0.00004317,-0.00000082,-0.0000167
 6,0.00010722,-0.00005392,-0.00004715,-0.00003544,-0.00004028,-0.000021
 81,-0.00000582,-0.00001362,0.00001717,-0.00000966,-0.00000039,-0.00002
 424,0.00033896,0.00009662,0.00012494,-0.00004596,0.00001145,-0.0000630
 9,-0.00002107,0.00000861,0.00000573,0.00001529,0.00000182,0.00002173,-
 0.08624941,0.00307197,-0.00617035,0.00350930,0.02525259,-0.00834073,0.
 54010186,0.00018882,0.00001381,0.00022019,0.00017284,-0.00023607,-0.00
 138002,0.00166191,0.00109285,-0.00251416,0.00026007,-0.00068086,0.0001
 0274,-0.00098269,-0.00145211,-0.00008521,0.00609646,0.00758527,-0.0039
 9040,-0.00228466,0.00007941,0.00126888,0.00004463,0.00027112,-0.000014
 50,-0.00148088,0.00945020,0.00045092,-0.00025301,0.00014299,-0.0001713
 0,-0.00007818,0.00003887,0.00000988,0.00003613,0.00002896,-0.00004640,
 0.00009123,0.00014741,0.00025412,-0.00000238,0.00035446,-0.00036145,-0
 .00001299,0.00004128,0.00001487,-0.00002448,0.00003508,-0.00002516,0.0
 0006602,-0.00035529,0.00035233,0.00074023,-0.00058089,0.00105151,0.000
 21749,-0.00005831,0.00006751,-0.00004861,-0.00000647,-0.00002185,-0.00
 001418,0.00000743,-0.00000626,-0.00003619,0.00000498,0.00000812,-0.000
 24038,0.00040655,0.00017970,0.00000098,0.00003783,-0.00007464,0.000021
 38,-0.00001364,-0.00003507,0.00002170,-0.00002967,0.00000930,-0.000101
 23,-0.00003476,-0.00007393,-0.00000077,-0.00000337,0.00000981,-0.00002
 375,-0.00000972,0.00001951,0.00000045,0.00002845,0.00001489,0.00809927
 ,-0.15756949,0.07932128,0.01735750,-0.04576254,0.02170153,0.00114534,0
 .56355571,-0.00028014,0.00005030,0.00000329,-0.00038546,0.00009499,-0.
 00170692,0.00231363,-0.00403585,0.00458790,0.00069529,0.00033798,-0.00
 083679,-0.00067855,-0.00123225,-0.00010974,0.00508047,-0.00084847,0.00
 023171,-0.00084603,0.00063527,0.00045509,-0.00038162,-0.00022407,0.000
 11171,0.00039830,0.02531274,-0.05201851,0.00041466,-0.00002853,0.00026
 483,-0.00005927,-0.00000467,0.00004383,0.00011897,-0.00000353,0.000051
 73,0.00033632,0.00038117,0.00018790,-0.00015315,0.00061322,-0.00065643
 ,-0.00037464,0.00007145,0.00012897,-0.00000060,0.00009600,0.00002116,0
 .00001698,-0.00036712,0.00029363,0.00025307,0.00006738,0.00062477,-0.0
 0034907,0.00005102,-0.00005173,0.00001072,-0.00003886,-0.00000142,0.00
 005612,0.00003667,-0.00002268,0.00003480,-0.00000482,-0.00000117,-0.00
 000856,0.00000468,0.00000411,-0.00000421,0.00004222,-0.00001731,-0.000
 00467,-0.00000302,0.00000780,0.00000879,0.00000875,-0.00000249,0.00028
 143,0.00001087,0.00013468,-0.00000259,0.00002141,-0.00001484,-0.000049
 22,0.00001571,-0.00000615,-0.00005784,-0.00000725,-0.00000457,-0.01290
 860,0.07992430,-0.15593662,0.00061461,-0.00466752,0.01233474,-0.043172
 69,0.04533862,0.57396434,0.00006312,-0.00005803,0.00003894,0.00003182,
 -0.00000793,0.00005607,-0.00017435,0.00012678,-0.00027686,0.00019985,0
 .00025841,-0.00004178,0.00008418,0.00017153,0.00002952,-0.00049682,0.0
 0007448,-0.00005355,0.00018888,-0.00005728,-0.00003940,-0.00006393,-0.
 00024921,0.00017580,-0.00015420,-0.00017459,0.00220182,-0.00012338,0.0
 0013258,-0.00002110,0.00000120,-0.00000756,0.00001027,-0.00001867,0.00
 001965,-0.00001708,-0.00000967,-0.00001825,-0.00001364,0.00003130,-0.0
 0002377,0.00002345,-0.00001605,-0.00004944,0.00002022,-0.00003290,0.00
 000657,0.00000616,-0.00001893,0.00005729,-0.00003610,-0.00007260,-0.00
 006185,-0.00007597,0.00008021,-0.00005016,0.00002771,-0.00001744,-0.00
 002859,-0.00003887,-0.00001315,0.00002313,-0.00000853,-0.00002095,-0.0
 0000941,0.00002187,0.00000922,0.00001547,0.00000768,-0.00000166,-0.000
 01012,-0.00000168,-0.00000157,0.00000202,0.00000126,0.00000120,-0.0000
 0393,-0.00000160,-0.00010397,0.00002354,-0.00004199,0.00000612,-0.0000
 1687,0.00003138,0.00001967,-0.00001159,-0.00000539,-0.00004504,-0.0000
 0860,-0.00003488,-0.00246253,0.00822929,-0.00023993,0.00056977,0.00184
 817,-0.00168571,-0.05027732,-0.05211048,-0.01665908,0.05344769,-0.0000
 2162,-0.00000784,0.00006607,-0.00005666,0.00002357,-0.00050660,0.00065
 053,0.00004272,0.00099934,-0.00001311,-0.00022607,-0.00004546,-0.00019
 157,-0.00037488,-0.00003007,0.00111551,0.00092151,-0.00052714,-0.00044
 244,0.00005552,0.00025157,-0.00013602,0.00015233,-0.00018028,0.0008534
 2,0.00184259,-0.00245260,0.00010331,0.00003137,-0.00000046,-0.00001545
 ,0.00000350,-0.00000205,0.00002481,0.00000941,-0.00000061,0.00006631,0
 .00010591,0.00005036,-0.00000455,0.00001525,-0.00000562,-0.00002247,0.
 00004546,-0.00001181,0.00000993,0.00001529,-0.00000654,0.00002226,-0.0
 0010829,0.00008668,0.00011312,0.00002313,0.00018769,-0.00009129,0.0000
 2138,-0.00000442,-0.00000537,-0.00000224,0.00000152,0.00001367,0.00000
 839,-0.00000062,0.00000758,-0.00000246,-0.00000759,-0.00001835,0.00001
 795,0.00000633,-0.00000106,0.00001245,-0.00000776,0.00000146,-0.000003
 69,-0.00000069,0.00000338,0.00000101,-0.00000074,0.00020902,0.00004791
 ,0.00004361,-0.00002720,0.00001327,-0.00003142,-0.00004250,0.00000946,
 -0.00000269,0.00000663,0.00000690,0.00002122,-0.00503303,-0.02224198,-
 0.00982424,0.00014554,-0.00327973,0.00342185,-0.05017672,-0.27542392,-
 0.09639065,0.05270935,0.29837409,-0.00004691,0.00001230,-0.00002055,-0
 .00010013,0.00000170,0.00022042,-0.00017314,-0.00014289,0.00007663,0.0
 0012997,0.00027249,-0.00003191,0.00025571,0.00031334,0.00007554,-0.001
 55816,-0.00092813,0.00053450,0.00038981,-0.00008182,-0.00022677,0.0000
 7363,-0.00026860,0.00008383,-0.00057357,0.00009710,-0.00099931,0.00008
 798,-0.00006362,0.00002424,0.00001970,-0.00000813,-0.00000833,-0.00000
 441,-0.00001010,-0.00000078,0.00000425,-0.00000073,-0.00003788,-0.0000
 0724,0.00002423,-0.00004159,-0.00002785,-0.00002712,0.00001357,0.00000
 562,-0.00000112,0.00001240,-0.00002870,0.00012827,-0.00011585,-0.00017
 758,0.00010153,-0.00027203,-0.00004172,0.00002834,-0.00001749,0.000013
 08,-0.00000840,0.00000539,0.00001100,-0.00000181,-0.00000373,0.0000146
 8,0.00000160,-0.00000331,0.00005434,-0.00008701,-0.00003306,0.00000142
 ,-0.00001019,0.00001338,-0.00000513,0.00000323,0.00000772,-0.00000390,
 0.00000448,-0.00000143,-0.00009349,-0.00001679,-0.00000879,0.00001399,
 0.00000193,0.00000839,0.00003259,-0.00002143,0.00000140,-0.00002833,0.
 00000590,0.00000377,0.00845347,0.02150783,0.01185468,-0.00235953,0.005
 21321,-0.00270291,-0.01891557,-0.10182540,-0.09292733,0.02289200,0.104
 23726,0.09457969,0.00020817,-0.00004293,0.00012178,0.00013817,-0.00004
 345,-0.00000573,0.00003442,0.00068869,-0.00102193,-0.00007924,-0.00018
 856,0.00016870,-0.00010602,0.00006602,-0.00002611,0.00000763,0.0007022
 8,-0.00054406,-0.00019056,-0.00007800,0.00014390,0.00014664,0.00008362
 ,0.00001244,-0.00056280,-0.00007092,0.00385118,-0.00031882,0.00017733,
 -0.00026914,-0.00000595,0.00001898,-0.00002815,-0.00002573,0.00002350,
 -0.00004826,-0.00004744,-0.00004753,0.00000821,0.00001915,-0.00002952,
 0.00003901,0.00008238,-0.00000470,-0.00000920,-0.00001534,-0.00001992,
 -0.00000983,-0.00000661,-0.00002386,0.00002431,0.00007899,-0.00014602,
 0.00008323,0.00021332,-0.00014981,0.00016018,-0.00010023,0.00003911,-0
 .00001018,-0.00003282,0.00001423,-0.00001308,-0.00004317,0.00002822,-0
 .00003931,-0.00005030,0.00007637,0.00003548,0.00000586,-0.00000006,-0.
 00001040,0.00000418,-0.00000185,-0.00000862,0.00000521,-0.00000781,0.0
 0000287,-0.00013242,-0.00003236,-0.00002495,0.00001802,-0.00000269,0.0
 0000828,0.00001362,-0.00000783,0.00000812,0.00001392,0.00001145,0.0000
 0797,-0.00626431,0.00381187,-0.00489032,0.00140468,-0.00182779,-0.0006
 1461,-0.29233242,-0.00848387,-0.06992610,-0.00474907,0.00071126,-0.000
 49700,0.31698761,0.00018010,-0.00014859,0.00018503,0.00011870,-0.00024
 959,-0.00002484,-0.00057390,-0.00032554,-0.00013531,-0.00012006,-0.000
 01618,-0.00018007,-0.00002766,0.00017624,-0.00015084,-0.00066231,0.000
 25977,-0.00143061,-0.00078106,-0.00023110,0.00063743,0.00005686,0.0000
 8421,-0.00000691,-0.00079655,0.00036279,-0.00058248,0.00002359,0.00006
 400,-0.00040995,-0.00001882,0.00003442,-0.00007652,-0.00001749,0.00003
 415,-0.00002029,-0.00001827,0.00000169,0.00000212,-0.00001877,0.000041
 99,-0.00003036,-0.00002393,0.00002264,0.00001556,-0.00000840,-0.000004
 19,0.00001582,0.00009150,-0.00024658,0.00022065,0.00000425,-0.00003108
 ,-0.00001136,-0.00017736,0.00003492,-0.00002849,-0.00003206,0.00007593
 ,0.00004759,0.00001313,-0.00002483,0.00002576,0.00003342,0.00000658,-0
 .00005718,-0.00001691,0.00000487,0.00000814,0.00000808,0.00000544,0.00
 000553,0.00000040,0.00000185,-0.00000132,0.00000273,0.00000088,0.00000
 413,-0.00001727,-0.00001968,0.00000452,0.00000683,0.00000576,-0.000002
 38,-0.00000113,0.00000105,0.00000076,0.00001478,0.00000420,0.00001170,
 0.02708320,-0.00041541,0.00655476,-0.00114661,-0.00368856,0.00152036,-
 0.00567276,-0.03875669,0.00158738,-0.02824030,0.00098519,-0.00795812,0
 .00561640,0.04316927,-0.00033427,0.00025726,-0.00027276,-0.00020446,0.
 00017281,-0.00020090,0.00114348,0.00058573,0.00020782,0.00010653,-0.00
 011677,0.00019281,0.00001686,-0.00011469,0.00000969,0.00012076,0.00013
 826,0.00055039,0.00030562,-0.00001619,-0.00028312,-0.00001389,-0.00000
 197,0.00000533,0.00195368,0.00111708,-0.00111333,0.00003253,-0.0004332
 1,0.00045925,0.00002525,-0.00003276,0.00007970,0.00003405,-0.00008645,
 0.00006776,0.00005258,0.00006315,0.00001501,-0.00001103,-0.00002029,-0
 .00000003,0.00003054,-0.00000009,-0.00001657,-0.00000148,0.00000855,-0
 .00000687,-0.00000936,0.00010029,-0.00009541,0.00001311,-0.00001050,0.
 00002216,0.00025400,0.00004922,-0.00000330,0.00010623,0.00002483,0.000
 03862,-0.00002832,-0.00006170,0.00002272,-0.00003365,0.00000484,0.0000
 1883,0.00000625,0.00002631,0.00001075,-0.00000803,-0.00000243,-0.00000
 425,0.00000107,-0.00000056,-0.00000174,-0.00000178,-0.00000168,-0.0000
 0153,0.00005675,0.00002292,-0.00000239,-0.00001713,0.00000027,-0.00000
 532,-0.00001259,0.00000580,-0.00000648,-0.00000113,-0.00000449,-0.0000
 0399,-0.02631909,-0.00240144,-0.00882243,0.00134065,0.00028441,-0.0006
 0546,-0.07205668,0.00113532,-0.06110895,-0.01054851,0.00041029,-0.0038
 1196,0.07935075,-0.00151058,0.06557340,-0.00009001,0.00006609,-0.00006
 303,-0.00010147,0.00003283,-0.00020559,0.00059379,0.00035405,-0.000374
 08,0.00012042,0.00002419,0.00006206,0.00006682,0.00006508,-0.00003728,
 0.00002863,-0.00012663,-0.00011018,-0.00003813,0.00000844,0.00003781,-
 0.00011974,-0.00006331,0.00009461,0.00027118,0.00154226,-0.00171566,-0
 .00001431,-0.00011238,0.00006851,0.00000697,-0.00000584,0.00001760,0.0
 0000275,-0.00001904,0.00001895,0.00005116,0.00005753,-0.00000154,-0.00
 000933,0.00003385,-0.00004820,0.00000170,-0.00001120,0.00000160,-0.000
 03120,0.00001055,-0.00000218,0.00003795,-0.00002278,0.00003320,-0.0000
 4356,-0.00004351,0.00000599,0.00007195,0.00001484,-0.00000301,0.000035
 36,0.00001429,0.00000798,-0.00001139,-0.00002066,0.00001127,-0.0000087
 0,-0.00000038,0.00000177,0.00001780,0.00001249,0.00000230,-0.00000102,
 -0.00000248,-0.00000206,-0.00000625,0.00000056,-0.00000080,-0.00000105
 ,-0.00000050,0.00000153,0.00002038,0.00000739,-0.00001303,-0.00001051,
 -0.00000345,0.00001123,-0.00000737,0.00001555,-0.00001446,-0.00001041,
 -0.00001863,-0.00002366,0.00108178,-0.00072721,-0.00770179,0.00011629,
 -0.00025720,-0.00073847,-0.13734538,0.02995626,0.13566795,0.00413995,-
 0.00046767,-0.00781087,-0.01431872,0.00511766,0.02465069,0.14550367,0.
 00005464,-0.00002395,-0.00001377,0.00002818,0.00016448,0.00022528,0.00
 034398,0.00121755,-0.00013256,-0.00019347,-0.00009508,0.00034689,0.000
 10362,0.00012597,0.00006332,-0.00045777,-0.00017008,0.00036191,0.00027
 473,-0.00008170,-0.00033664,0.00004629,0.00000287,-0.00006747,0.001375
 44,-0.00324926,0.00627855,-0.00013518,0.00001715,-0.00004079,0.0000184
 2,-0.00000481,-0.00000345,-0.00003168,0.00000062,-0.00000458,-0.000048
 90,-0.00004800,-0.00004499,0.00007203,-0.00023793,0.00025274,0.0001306
 4,-0.00003551,-0.00005061,0.00001808,-0.00002150,-0.00000411,-0.000002
 66,0.00002459,-0.00005229,-0.00001807,-0.00003328,-0.00011050,0.000079
 63,-0.00003504,0.00003379,-0.00001654,0.00000241,-0.00001154,-0.000021
 17,0.00000105,0.00000115,-0.00001721,-0.00000179,0.00000250,-0.0000057
 3,0.00002946,0.00001173,-0.00000954,-0.00001637,-0.00000103,0.00000808
 ,-0.00000130,0.00000192,-0.00000058,-0.00000416,-0.00000528,-0.0000339
 9,0.00002708,-0.00001057,-0.00000130,-0.00000981,0.,0.00001065,-0.0000
 0411,0.00000314,0.00000861,-0.00000196,-0.00000957,-0.01837560,0.00619
 724,0.01684724,0.00091361,-0.00005515,-0.00033974,0.03467397,-0.062348
 84,-0.04684555,0.01749970,-0.00111448,-0.02049334,-0.00085988,-0.00121
 980,0.00040846,-0.03543105,0.06100345,-0.00005210,0.00002510,0.0000124
 9,-0.00003616,-0.00012857,-0.00058116,0.00057518,-0.00047429,0.0006200
 2,0.00020921,0.00008060,-0.00025041,-0.00007580,-0.00010246,-0.0001520
 8,0.00009959,0.00120249,-0.00081414,-0.00066804,-0.00022384,0.00068443
 ,-0.00010185,-0.00003710,0.00022924,-0.00062304,0.00421896,-0.00401743
 ,-0.00000498,-0.00001636,0.00004159,-0.00001607,0.00000775,0.00001254,
 0.00001967,-0.00000313,0.00000526,0.00007863,0.00010320,0.00007600,-0.
 00004011,0.00014606,-0.00015309,-0.00008985,-0.00001529,0.00005670,-0.
 00003031,0.00003454,0.00001861,0.00003187,-0.00006342,0.00007827,0.000
 06066,-0.00011584,0.00014390,0.00003919,0.00000662,-0.00000985,0.00001
 696,0.00000250,0.00000128,0.00000081,-0.00000871,0.00000367,-0.0000044
 9,0.00000002,0.00000594,-0.00002665,0.00005955,0.00003250,0.00000225,0
 .00000930,-0.00000633,-0.00000091,0.00000211,-0.00000606,0.00000362,-0
 .00000425,0.00000417,-0.00003760,-0.00000241,-0.00003670,-0.00000110,-
 0.00000578,0.00002342,-0.00001045,0.00001029,-0.00001256,-0.00001830,-
 0.00001425,-0.00002362,0.01335713,-0.00646780,-0.01907859,-0.00018424,
 -0.00308664,0.00170172,0.13108836,-0.04090530,-0.22802854,0.00429751,0
 .00025627,-0.00625056,-0.00602942,0.00177035,0.00909255,-0.14182917,0.
 04373975,0.24657681\\-0.00000185,0.00000322,-0.00000282,0.00000036,0.0
 0000033,-0.00000157,-0.00000481,-0.00000112,-0.00000191,0.00000137,-0.
 00000215,0.00000003,-0.00000457,-0.00000378,0.00000100,0.00000193,-0.0
 0000010,-0.00000076,-0.00000158,-0.00000130,0.00000220,0.00000503,-0.0
 0000399,0.00000150,-0.00000138,0.00000332,0.00000451,-0.00000206,0.000
 00094,0.00000149,-0.00000059,0.00000082,0.00000005,-0.00000147,0.00000
 175,-0.00000125,-0.00000130,-0.00000014,-0.00000097,0.00000107,-0.0000
 0114,0.00000092,0.00000043,-0.00000209,-0.00000060,0.00000031,-0.00000
 039,-0.00000035,-0.00000217,0.00000232,-0.00000167,0.00000550,-0.00000
 133,-0.00000211,0.00000370,0.00000446,0.00000014,0.00000106,0.00000380
 ,0.00000016,-0.00000061,0.00000383,-0.00000057,0.00000020,0.00000322,0
 .00000023,-0.00000669,0.00000158,0.00000139,-0.00000225,-0.00000174,-0
 .00000255,-0.00000153,-0.00000282,-0.00000140,-0.00000353,-0.00000346,
 -0.00000265,-0.00000139,-0.00000172,-0.00000011,0.00000127,-0.00000387
 ,0.00000124,0.00000066,-0.00000345,0.00000081,0.00000275,-0.00000308,0
 .00000227,0.00000881,-0.00000701,-0.00000524,-0.00000432,0.00000729,0.
 00000342,-0.00000101,0.00000157,0.00000044,0.00000341,0.00000113,0.000
 00210,0.00000269,0.00000286,0.00000118,0.00000256,0.00000227,0.0000014
 3\\\@


 UNLESS WE CHANGE DIRECTIONS, WE WILL WIND UP WHERE WE ARE HEADED.
     -- CONFUCIUS
 Job cpu time:       0 days  3 hours 44 minutes 55.8 seconds.
 File lengths (MBytes):  RWF=    766 Int=      0 D2E=      0 Chk=     19 Scr=      1
 Normal termination of Gaussian 09 at Thu Jul  6 18:11:49 2017.
