 Entering Gaussian System, Link 0=g09
 Initial command:
 /share/apps//g09/l1.exe "/scratch/Gau-29082.inp" -scrdir="/scratch/"
 Entering Link 1 = /share/apps//g09/l1.exe PID=     29083.
  
 Copyright (c) 1988,1990,1992,1993,1995,1998,2003,2009,2013,
            Gaussian, Inc.  All Rights Reserved.
  
 This is part of the Gaussian(R) 09 program.  It is based on
 the Gaussian(R) 03 system (copyright 2003, Gaussian, Inc.),
 the Gaussian(R) 98 system (copyright 1998, Gaussian, Inc.),
 the Gaussian(R) 94 system (copyright 1995, Gaussian, Inc.),
 the Gaussian 92(TM) system (copyright 1992, Gaussian, Inc.),
 the Gaussian 90(TM) system (copyright 1990, Gaussian, Inc.),
 the Gaussian 88(TM) system (copyright 1988, Gaussian, Inc.),
 the Gaussian 86(TM) system (copyright 1986, Carnegie Mellon
 University), and the Gaussian 82(TM) system (copyright 1983,
 Carnegie Mellon University). Gaussian is a federally registered
 trademark of Gaussian, Inc.
  
 This software contains proprietary and confidential information,
 including trade secrets, belonging to Gaussian, Inc.
  
 This software is provided under written license and may be
 used, copied, transmitted, or stored only in accord with that
 written license.
  
 The following legend is applicable only to US Government
 contracts under FAR:
  
                    RESTRICTED RIGHTS LEGEND
  
 Use, reproduction and disclosure by the US Government is
 subject to restrictions as set forth in subparagraphs (a)
 and (c) of the Commercial Computer Software - Restricted
 Rights clause in FAR 52.227-19.
  
 Gaussian, Inc.
 340 Quinnipiac St., Bldg. 40, Wallingford CT 06492
  
  
 ---------------------------------------------------------------
 Warning -- This program may not be used in any manner that
 competes with the business of Gaussian, Inc. or will provide
 assistance to any competitor of Gaussian, Inc.  The licensee
 of this program is prohibited from giving any competitor of
 Gaussian, Inc. access to this program.  By using this program,
 the user acknowledges that Gaussian, Inc. is engaged in the
 business of creating and licensing software in the field of
 computational chemistry and represents and warrants to the
 licensee that it is not a competitor of Gaussian, Inc. and that
 it will not use this program in any manner prohibited above.
 ---------------------------------------------------------------
  

 Cite this work as:
 Gaussian 09, Revision D.01,
 M. J. Frisch, G. W. Trucks, H. B. Schlegel, G. E. Scuseria, 
 M. A. Robb, J. R. Cheeseman, G. Scalmani, V. Barone, B. Mennucci, 
 G. A. Petersson, H. Nakatsuji, M. Caricato, X. Li, H. P. Hratchian, 
 A. F. Izmaylov, J. Bloino, G. Zheng, J. L. Sonnenberg, M. Hada, 
 M. Ehara, K. Toyota, R. Fukuda, J. Hasegawa, M. Ishida, T. Nakajima, 
 Y. Honda, O. Kitao, H. Nakai, T. Vreven, J. A. Montgomery, Jr., 
 J. E. Peralta, F. Ogliaro, M. Bearpark, J. J. Heyd, E. Brothers, 
 K. N. Kudin, V. N. Staroverov, T. Keith, R. Kobayashi, J. Normand, 
 K. Raghavachari, A. Rendell, J. C. Burant, S. S. Iyengar, J. Tomasi, 
 M. Cossi, N. Rega, J. M. Millam, M. Klene, J. E. Knox, J. B. Cross, 
 V. Bakken, C. Adamo, J. Jaramillo, R. Gomperts, R. E. Stratmann, 
 O. Yazyev, A. J. Austin, R. Cammi, C. Pomelli, J. W. Ochterski, 
 R. L. Martin, K. Morokuma, V. G. Zakrzewski, G. A. Voth, 
 P. Salvador, J. J. Dannenberg, S. Dapprich, A. D. Daniels, 
 O. Farkas, J. B. Foresman, J. V. Ortiz, J. Cioslowski, 
 and D. J. Fox, Gaussian, Inc., Wallingford CT, 2013.
 
 ******************************************
 Gaussian 09:  EM64L-G09RevD.01 24-Apr-2013
                24-Oct-2017 
 ******************************************
 %nproc=20
 Will use up to   20 processors via shared memory.
 %mem=100GB
 %chk=Ac-4_cGalMe.chk
 -------------------------------------------------------------------
 #P PBE1PBE/6-311+G(d,p) opt optcyc=999 freq EmpiricalDispersion=GD3
 -------------------------------------------------------------------
 1/6=999,14=-1,18=20,19=15,26=3,38=1/1,3;
 2/9=110,12=2,17=6,18=5,40=1/2;
 3/5=4,6=6,7=111,11=2,16=1,25=1,30=1,71=1,74=-13,124=31/1,2,3;
 4//1;
 5/5=2,38=5/2;
 6/7=2,8=2,9=2,10=2,28=1/1;
 7//1,2,3,16;
 1/6=999,14=-1,18=20,19=15,26=3/3(2);
 2/9=110/2;
 99//99;
 2/9=110/2;
 3/5=4,6=6,7=111,11=2,16=1,25=1,30=1,71=1,74=-13,124=31/1,2,3;
 4/5=5,16=3,69=1/1;
 5/5=2,38=5/2;
 7//1,2,3,16;
 1/6=999,14=-1,18=20,19=15,26=3/3(-5);
 2/9=110/2;
 6/7=2,8=2,9=2,10=2,19=2,28=1/1;
 99/9=1/99;
 Leave Link    1 at Tue Oct 24 12:45:24 2017, MaxMem= 13421772800 cpu:         1.5
 (Enter /share/apps//g09/l101.exe)
 -------
 disacch
 -------
 Symbolic Z-matrix:
 Charge =  1 Multiplicity = 1
 C                    -2.18827   1.3079    0.22477 
 C                    -0.71657   0.90811   0.41524 
 C                     0.07304   1.87252   1.27911 
 C                     1.5317    1.39499   1.49652 
 C                     2.06212   0.69351   0.22593 
 C                     1.20181   1.10219  -0.97894 
 O                    -0.11375   0.82     -0.91696 
 O                     2.42182   2.44403   1.81185 
 O                     0.07987   3.23935   0.67323 
 O                    -2.83252   1.37545   1.48153 
 H                    -2.66774   0.5882   -0.45976 
 H                    -2.24826   2.30533  -0.23724 
 H                    -0.65076  -0.0892    0.88249 
 H                    -0.46782   2.04055   2.21833 
 H                     1.50069   0.63003   2.29541 
 H                     3.10242   1.02356   0.05612 
 H                     1.58528   0.8158   -1.96355 
 O                     1.97014  -0.69988   0.43606 
 C                    -3.49746   0.16162   1.86618 
 H                    -3.95392   0.35799   2.84227 
 H                    -4.28585  -0.09849   1.14171 
 H                    -2.79851  -0.68678   1.96332 
 C                     2.76794  -1.49862  -0.45849 
 H                     2.3582   -1.51011  -1.48072 
 H                     3.80938  -1.14     -0.47594 
 H                     2.74052  -2.51628  -0.05597 
 C                     2.26735   2.96985   3.14307 
 H                     1.33248   3.54326   3.25324 
 H                     2.2943    2.15799   3.88696 
 H                     3.11956   3.63767   3.30543 
 C                     0.85797   3.53525  -0.32787 
 O                     1.43213   2.69841  -1.10836 
 C                     1.06416   4.98086  -0.58346 
 H                     1.93579   5.29832   0.01044 
 H                     0.19609   5.55588  -0.24473 
 H                     1.27947   5.16064  -1.64061 
 
 NAtoms=     36 NQM=       36 NQMF=       0 NMMI=      0 NMMIF=      0
                NMic=       0 NMicF=      0.
                    Isotopes and Nuclear Properties:
 (Nuclear quadrupole moments (NQMom) in fm**2, nuclear magnetic moments (NMagM)
  in nuclear magnetons)

  Atom         1           2           3           4           5           6           7           8           9          10
 IAtWgt=          12          12          12          12          12          12          16          16          16          16
 AtmWgt=  12.0000000  12.0000000  12.0000000  12.0000000  12.0000000  12.0000000  15.9949146  15.9949146  15.9949146  15.9949146
 NucSpn=           0           0           0           0           0           0           0           0           0           0
 AtZEff=   0.0000000   0.0000000   0.0000000   0.0000000   0.0000000   0.0000000   0.0000000   0.0000000   0.0000000   0.0000000
 NQMom=    0.0000000   0.0000000   0.0000000   0.0000000   0.0000000   0.0000000   0.0000000   0.0000000   0.0000000   0.0000000
 NMagM=    0.0000000   0.0000000   0.0000000   0.0000000   0.0000000   0.0000000   0.0000000   0.0000000   0.0000000   0.0000000
 AtZNuc=   6.0000000   6.0000000   6.0000000   6.0000000   6.0000000   6.0000000   8.0000000   8.0000000   8.0000000   8.0000000

  Atom        11          12          13          14          15          16          17          18          19          20
 IAtWgt=           1           1           1           1           1           1           1          16          12           1
 AtmWgt=   1.0078250   1.0078250   1.0078250   1.0078250   1.0078250   1.0078250   1.0078250  15.9949146  12.0000000   1.0078250
 NucSpn=           1           1           1           1           1           1           1           0           0           1
 AtZEff=   0.0000000   0.0000000   0.0000000   0.0000000   0.0000000   0.0000000   0.0000000   0.0000000   0.0000000   0.0000000
 NQMom=    0.0000000   0.0000000   0.0000000   0.0000000   0.0000000   0.0000000   0.0000000   0.0000000   0.0000000   0.0000000
 NMagM=    2.7928460   2.7928460   2.7928460   2.7928460   2.7928460   2.7928460   2.7928460   0.0000000   0.0000000   2.7928460
 AtZNuc=   1.0000000   1.0000000   1.0000000   1.0000000   1.0000000   1.0000000   1.0000000   8.0000000   6.0000000   1.0000000

  Atom        21          22          23          24          25          26          27          28          29          30
 IAtWgt=           1           1          12           1           1           1          12           1           1           1
 AtmWgt=   1.0078250   1.0078250  12.0000000   1.0078250   1.0078250   1.0078250  12.0000000   1.0078250   1.0078250   1.0078250
 NucSpn=           1           1           0           1           1           1           0           1           1           1
 AtZEff=   0.0000000   0.0000000   0.0000000   0.0000000   0.0000000   0.0000000   0.0000000   0.0000000   0.0000000   0.0000000
 NQMom=    0.0000000   0.0000000   0.0000000   0.0000000   0.0000000   0.0000000   0.0000000   0.0000000   0.0000000   0.0000000
 NMagM=    2.7928460   2.7928460   0.0000000   2.7928460   2.7928460   2.7928460   0.0000000   2.7928460   2.7928460   2.7928460
 AtZNuc=   1.0000000   1.0000000   6.0000000   1.0000000   1.0000000   1.0000000   6.0000000   1.0000000   1.0000000   1.0000000

  Atom        31          32          33          34          35          36
 IAtWgt=          12          16          12           1           1           1
 AtmWgt=  12.0000000  15.9949146  12.0000000   1.0078250   1.0078250   1.0078250
 NucSpn=           0           0           0           1           1           1
 AtZEff=   0.0000000   0.0000000   0.0000000   0.0000000   0.0000000   0.0000000
 NQMom=    0.0000000   0.0000000   0.0000000   0.0000000   0.0000000   0.0000000
 NMagM=    0.0000000   0.0000000   0.0000000   2.7928460   2.7928460   2.7928460
 AtZNuc=   6.0000000   8.0000000   6.0000000   1.0000000   1.0000000   1.0000000
 Leave Link  101 at Tue Oct 24 12:45:25 2017, MaxMem= 13421772800 cpu:         5.4
 (Enter /share/apps//g09/l103.exe)

 GradGradGradGradGradGradGradGradGradGradGradGradGradGradGradGradGradGrad
 Berny optimization.
 Initialization pass.
                           ----------------------------
                           !    Initial Parameters    !
                           ! (Angstroms and Degrees)  !
 --------------------------                            --------------------------
 ! Name  Definition              Value          Derivative Info.                !
 --------------------------------------------------------------------------------
 ! R1    R(1,2)                  1.5369         estimate D2E/DX2                !
 ! R2    R(1,10)                 1.4139         estimate D2E/DX2                !
 ! R3    R(1,11)                 1.1029         estimate D2E/DX2                !
 ! R4    R(1,12)                 1.1009         estimate D2E/DX2                !
 ! R5    R(2,3)                  1.5165         estimate D2E/DX2                !
 ! R6    R(2,7)                  1.4649         estimate D2E/DX2                !
 ! R7    R(2,13)                 1.1033         estimate D2E/DX2                !
 ! R8    R(3,4)                  1.5502         estimate D2E/DX2                !
 ! R9    R(3,9)                  1.4951         estimate D2E/DX2                !
 ! R10   R(3,14)                 1.0968         estimate D2E/DX2                !
 ! R11   R(4,5)                  1.5453         estimate D2E/DX2                !
 ! R12   R(4,8)                  1.4115         estimate D2E/DX2                !
 ! R13   R(4,15)                 1.1065         estimate D2E/DX2                !
 ! R14   R(5,6)                  1.5359         estimate D2E/DX2                !
 ! R15   R(5,16)                 1.1045         estimate D2E/DX2                !
 ! R16   R(5,18)                 1.4121         estimate D2E/DX2                !
 ! R17   R(6,7)                  1.3469         estimate D2E/DX2                !
 ! R18   R(6,17)                 1.0948         estimate D2E/DX2                !
 ! R19   R(6,32)                 1.6179         estimate D2E/DX2                !
 ! R20   R(8,27)                 1.4396         estimate D2E/DX2                !
 ! R21   R(9,31)                 1.302          estimate D2E/DX2                !
 ! R22   R(10,19)                1.4365         estimate D2E/DX2                !
 ! R23   R(18,23)                1.4404         estimate D2E/DX2                !
 ! R24   R(19,20)                1.0953         estimate D2E/DX2                !
 ! R25   R(19,21)                1.1018         estimate D2E/DX2                !
 ! R26   R(19,22)                1.1035         estimate D2E/DX2                !
 ! R27   R(23,24)                1.1014         estimate D2E/DX2                !
 ! R28   R(23,25)                1.1016         estimate D2E/DX2                !
 ! R29   R(23,26)                1.0947         estimate D2E/DX2                !
 ! R30   R(27,28)                1.1022         estimate D2E/DX2                !
 ! R31   R(27,29)                1.1015         estimate D2E/DX2                !
 ! R32   R(27,30)                1.0948         estimate D2E/DX2                !
 ! R33   R(31,32)                1.2803         estimate D2E/DX2                !
 ! R34   R(31,33)                1.4824         estimate D2E/DX2                !
 ! R35   R(33,34)                1.1015         estimate D2E/DX2                !
 ! R36   R(33,35)                1.095          estimate D2E/DX2                !
 ! R37   R(33,36)                1.0937         estimate D2E/DX2                !
 ! A1    A(2,1,10)             109.7917         estimate D2E/DX2                !
 ! A2    A(2,1,11)             108.8724         estimate D2E/DX2                !
 ! A3    A(2,1,12)             109.8696         estimate D2E/DX2                !
 ! A4    A(10,1,11)            112.6292         estimate D2E/DX2                !
 ! A5    A(10,1,12)            107.7534         estimate D2E/DX2                !
 ! A6    A(11,1,12)            107.8822         estimate D2E/DX2                !
 ! A7    A(1,2,3)              113.8134         estimate D2E/DX2                !
 ! A8    A(1,2,7)              107.2774         estimate D2E/DX2                !
 ! A9    A(1,2,13)             110.1661         estimate D2E/DX2                !
 ! A10   A(3,2,7)              110.0004         estimate D2E/DX2                !
 ! A11   A(3,2,13)             107.6103         estimate D2E/DX2                !
 ! A12   A(7,2,13)             107.8318         estimate D2E/DX2                !
 ! A13   A(2,3,4)              111.9581         estimate D2E/DX2                !
 ! A14   A(2,3,9)              110.6653         estimate D2E/DX2                !
 ! A15   A(2,3,14)             109.1763         estimate D2E/DX2                !
 ! A16   A(4,3,9)              109.5213         estimate D2E/DX2                !
 ! A17   A(4,3,14)             113.0245         estimate D2E/DX2                !
 ! A18   A(9,3,14)             102.0768         estimate D2E/DX2                !
 ! A19   A(3,4,5)              110.3356         estimate D2E/DX2                !
 ! A20   A(3,4,8)              113.3154         estimate D2E/DX2                !
 ! A21   A(3,4,15)             106.7296         estimate D2E/DX2                !
 ! A22   A(5,4,8)              107.7353         estimate D2E/DX2                !
 ! A23   A(5,4,15)             106.8248         estimate D2E/DX2                !
 ! A24   A(8,4,15)             111.7275         estimate D2E/DX2                !
 ! A25   A(4,5,6)              109.3891         estimate D2E/DX2                !
 ! A26   A(4,5,16)             108.304          estimate D2E/DX2                !
 ! A27   A(4,5,18)             107.6509         estimate D2E/DX2                !
 ! A28   A(6,5,16)             109.1144         estimate D2E/DX2                !
 ! A29   A(6,5,18)             110.048          estimate D2E/DX2                !
 ! A30   A(16,5,18)            112.2761         estimate D2E/DX2                !
 ! A31   A(5,6,7)              117.0818         estimate D2E/DX2                !
 ! A32   A(5,6,17)             116.0872         estimate D2E/DX2                !
 ! A33   A(5,6,32)             104.2133         estimate D2E/DX2                !
 ! A34   A(7,6,17)             109.1899         estimate D2E/DX2                !
 ! A35   A(7,6,32)             110.4518         estimate D2E/DX2                !
 ! A36   A(17,6,32)             97.8328         estimate D2E/DX2                !
 ! A37   A(2,7,6)              115.5424         estimate D2E/DX2                !
 ! A38   A(4,8,27)             114.2288         estimate D2E/DX2                !
 ! A39   A(3,9,31)             121.4721         estimate D2E/DX2                !
 ! A40   A(1,10,19)            114.1148         estimate D2E/DX2                !
 ! A41   A(5,18,23)            114.7512         estimate D2E/DX2                !
 ! A42   A(10,19,20)           106.2628         estimate D2E/DX2                !
 ! A43   A(10,19,21)           110.7704         estimate D2E/DX2                !
 ! A44   A(10,19,22)           112.3356         estimate D2E/DX2                !
 ! A45   A(20,19,21)           109.2737         estimate D2E/DX2                !
 ! A46   A(20,19,22)           108.8657         estimate D2E/DX2                !
 ! A47   A(21,19,22)           109.2434         estimate D2E/DX2                !
 ! A48   A(18,23,24)           112.0959         estimate D2E/DX2                !
 ! A49   A(18,23,25)           110.6677         estimate D2E/DX2                !
 ! A50   A(18,23,26)           105.859          estimate D2E/DX2                !
 ! A51   A(24,23,25)           109.902          estimate D2E/DX2                !
 ! A52   A(24,23,26)           108.7997         estimate D2E/DX2                !
 ! A53   A(25,23,26)           109.3984         estimate D2E/DX2                !
 ! A54   A(8,27,28)            111.9283         estimate D2E/DX2                !
 ! A55   A(8,27,29)            110.6509         estimate D2E/DX2                !
 ! A56   A(8,27,30)            106.046          estimate D2E/DX2                !
 ! A57   A(28,27,29)           109.6756         estimate D2E/DX2                !
 ! A58   A(28,27,30)           109.1512         estimate D2E/DX2                !
 ! A59   A(29,27,30)           109.2933         estimate D2E/DX2                !
 ! A60   A(9,31,32)            126.0292         estimate D2E/DX2                !
 ! A61   A(9,31,33)            115.9323         estimate D2E/DX2                !
 ! A62   A(32,31,33)           118.0288         estimate D2E/DX2                !
 ! A63   A(6,32,31)            122.1582         estimate D2E/DX2                !
 ! A64   A(31,33,34)           107.3469         estimate D2E/DX2                !
 ! A65   A(31,33,35)           110.3957         estimate D2E/DX2                !
 ! A66   A(31,33,36)           110.7515         estimate D2E/DX2                !
 ! A67   A(34,33,35)           108.0112         estimate D2E/DX2                !
 ! A68   A(34,33,36)           108.542          estimate D2E/DX2                !
 ! A69   A(35,33,36)           111.6388         estimate D2E/DX2                !
 ! D1    D(10,1,2,3)           -59.5555         estimate D2E/DX2                !
 ! D2    D(10,1,2,7)           178.5208         estimate D2E/DX2                !
 ! D3    D(10,1,2,13)           61.4001         estimate D2E/DX2                !
 ! D4    D(11,1,2,3)           176.7222         estimate D2E/DX2                !
 ! D5    D(11,1,2,7)            54.7985         estimate D2E/DX2                !
 ! D6    D(11,1,2,13)          -62.3222         estimate D2E/DX2                !
 ! D7    D(12,1,2,3)            58.7796         estimate D2E/DX2                !
 ! D8    D(12,1,2,7)           -63.1441         estimate D2E/DX2                !
 ! D9    D(12,1,2,13)          179.7352         estimate D2E/DX2                !
 ! D10   D(2,1,10,19)          -93.4662         estimate D2E/DX2                !
 ! D11   D(11,1,10,19)          28.0306         estimate D2E/DX2                !
 ! D12   D(12,1,10,19)         146.8972         estimate D2E/DX2                !
 ! D13   D(1,2,3,4)            177.3679         estimate D2E/DX2                !
 ! D14   D(1,2,3,9)            -60.143          estimate D2E/DX2                !
 ! D15   D(1,2,3,14)            51.4443         estimate D2E/DX2                !
 ! D16   D(7,2,3,4)            -62.2273         estimate D2E/DX2                !
 ! D17   D(7,2,3,9)             60.2618         estimate D2E/DX2                !
 ! D18   D(7,2,3,14)           171.8491         estimate D2E/DX2                !
 ! D19   D(13,2,3,4)            54.9943         estimate D2E/DX2                !
 ! D20   D(13,2,3,9)           177.4834         estimate D2E/DX2                !
 ! D21   D(13,2,3,14)          -70.9293         estimate D2E/DX2                !
 ! D22   D(1,2,7,6)            150.121          estimate D2E/DX2                !
 ! D23   D(3,2,7,6)             25.8446         estimate D2E/DX2                !
 ! D24   D(13,2,7,6)           -91.239          estimate D2E/DX2                !
 ! D25   D(2,3,4,5)             35.466          estimate D2E/DX2                !
 ! D26   D(2,3,4,8)            156.3624         estimate D2E/DX2                !
 ! D27   D(2,3,4,15)           -80.2383         estimate D2E/DX2                !
 ! D28   D(9,3,4,5)            -87.6722         estimate D2E/DX2                !
 ! D29   D(9,3,4,8)             33.2241         estimate D2E/DX2                !
 ! D30   D(9,3,4,15)           156.6234         estimate D2E/DX2                !
 ! D31   D(14,3,4,5)           159.2571         estimate D2E/DX2                !
 ! D32   D(14,3,4,8)           -79.8466         estimate D2E/DX2                !
 ! D33   D(14,3,4,15)           43.5527         estimate D2E/DX2                !
 ! D34   D(2,3,9,31)           -77.9535         estimate D2E/DX2                !
 ! D35   D(4,3,9,31)            45.9462         estimate D2E/DX2                !
 ! D36   D(14,3,9,31)          165.9611         estimate D2E/DX2                !
 ! D37   D(3,4,5,6)             19.3657         estimate D2E/DX2                !
 ! D38   D(3,4,5,16)           138.186          estimate D2E/DX2                !
 ! D39   D(3,4,5,18)          -100.1959         estimate D2E/DX2                !
 ! D40   D(8,4,5,6)           -104.8072         estimate D2E/DX2                !
 ! D41   D(8,4,5,16)            14.0131         estimate D2E/DX2                !
 ! D42   D(8,4,5,18)           135.6312         estimate D2E/DX2                !
 ! D43   D(15,4,5,6)           135.0104         estimate D2E/DX2                !
 ! D44   D(15,4,5,16)         -106.1694         estimate D2E/DX2                !
 ! D45   D(15,4,5,18)           15.4488         estimate D2E/DX2                !
 ! D46   D(3,4,8,27)            72.9018         estimate D2E/DX2                !
 ! D47   D(5,4,8,27)          -164.7449         estimate D2E/DX2                !
 ! D48   D(15,4,8,27)          -47.707          estimate D2E/DX2                !
 ! D49   D(4,5,6,7)            -59.2723         estimate D2E/DX2                !
 ! D50   D(4,5,6,17)           169.3205         estimate D2E/DX2                !
 ! D51   D(4,5,6,32)            63.0277         estimate D2E/DX2                !
 ! D52   D(16,5,6,7)          -177.5885         estimate D2E/DX2                !
 ! D53   D(16,5,6,17)           51.0042         estimate D2E/DX2                !
 ! D54   D(16,5,6,32)          -55.2885         estimate D2E/DX2                !
 ! D55   D(18,5,6,7)            58.8017         estimate D2E/DX2                !
 ! D56   D(18,5,6,17)          -72.6055         estimate D2E/DX2                !
 ! D57   D(18,5,6,32)         -178.8983         estimate D2E/DX2                !
 ! D58   D(4,5,18,23)         -162.5531         estimate D2E/DX2                !
 ! D59   D(6,5,18,23)           78.3052         estimate D2E/DX2                !
 ! D60   D(16,5,18,23)         -43.4422         estimate D2E/DX2                !
 ! D61   D(5,6,7,2)             34.353          estimate D2E/DX2                !
 ! D62   D(17,6,7,2)           168.8528         estimate D2E/DX2                !
 ! D63   D(32,6,7,2)           -84.66           estimate D2E/DX2                !
 ! D64   D(5,6,32,31)          -77.0582         estimate D2E/DX2                !
 ! D65   D(7,6,32,31)           49.5037         estimate D2E/DX2                !
 ! D66   D(17,6,32,31)         163.421          estimate D2E/DX2                !
 ! D67   D(4,8,27,28)          -70.7313         estimate D2E/DX2                !
 ! D68   D(4,8,27,29)           51.9251         estimate D2E/DX2                !
 ! D69   D(4,8,27,30)          170.3369         estimate D2E/DX2                !
 ! D70   D(3,9,31,32)           18.1184         estimate D2E/DX2                !
 ! D71   D(3,9,31,33)         -163.0449         estimate D2E/DX2                !
 ! D72   D(1,10,19,20)        -179.5159         estimate D2E/DX2                !
 ! D73   D(1,10,19,21)         -60.9364         estimate D2E/DX2                !
 ! D74   D(1,10,19,22)          61.5371         estimate D2E/DX2                !
 ! D75   D(5,18,23,24)         -71.9243         estimate D2E/DX2                !
 ! D76   D(5,18,23,25)          51.1557         estimate D2E/DX2                !
 ! D77   D(5,18,23,26)         169.5926         estimate D2E/DX2                !
 ! D78   D(9,31,32,6)            2.7315         estimate D2E/DX2                !
 ! D79   D(33,31,32,6)        -176.0833         estimate D2E/DX2                !
 ! D80   D(9,31,33,34)          89.5629         estimate D2E/DX2                !
 ! D81   D(9,31,33,35)         -27.9367         estimate D2E/DX2                !
 ! D82   D(9,31,33,36)        -152.1025         estimate D2E/DX2                !
 ! D83   D(32,31,33,34)        -91.5028         estimate D2E/DX2                !
 ! D84   D(32,31,33,35)        150.9975         estimate D2E/DX2                !
 ! D85   D(32,31,33,36)         26.8317         estimate D2E/DX2                !
 --------------------------------------------------------------------------------
 Trust Radius=3.00D-01 FncErr=1.00D-07 GrdErr=1.00D-06
 Number of steps in this run=    216 maximum allowed number of steps=    216.
 GradGradGradGradGradGradGradGradGradGradGradGradGradGradGradGradGradGrad

 Leave Link  103 at Tue Oct 24 12:45:25 2017, MaxMem= 13421772800 cpu:         0.2
 (Enter /share/apps//g09/l202.exe)
                          Input orientation:                          
 ---------------------------------------------------------------------
 Center     Atomic      Atomic             Coordinates (Angstroms)
 Number     Number       Type             X           Y           Z
 ---------------------------------------------------------------------
      1          6           0       -2.188270    1.307900    0.224770
      2          6           0       -0.716570    0.908110    0.415240
      3          6           0        0.073040    1.872520    1.279110
      4          6           0        1.531700    1.394990    1.496520
      5          6           0        2.062120    0.693510    0.225930
      6          6           0        1.201810    1.102190   -0.978940
      7          8           0       -0.113750    0.820000   -0.916960
      8          8           0        2.421820    2.444030    1.811850
      9          8           0        0.079870    3.239350    0.673230
     10          8           0       -2.832520    1.375450    1.481530
     11          1           0       -2.667740    0.588200   -0.459760
     12          1           0       -2.248260    2.305330   -0.237240
     13          1           0       -0.650760   -0.089200    0.882490
     14          1           0       -0.467820    2.040550    2.218330
     15          1           0        1.500690    0.630030    2.295410
     16          1           0        3.102420    1.023560    0.056120
     17          1           0        1.585280    0.815800   -1.963550
     18          8           0        1.970140   -0.699880    0.436060
     19          6           0       -3.497460    0.161620    1.866180
     20          1           0       -3.953920    0.357990    2.842270
     21          1           0       -4.285850   -0.098490    1.141710
     22          1           0       -2.798510   -0.686780    1.963320
     23          6           0        2.767940   -1.498620   -0.458490
     24          1           0        2.358200   -1.510110   -1.480720
     25          1           0        3.809380   -1.140000   -0.475940
     26          1           0        2.740520   -2.516280   -0.055970
     27          6           0        2.267350    2.969850    3.143070
     28          1           0        1.332480    3.543260    3.253240
     29          1           0        2.294300    2.157990    3.886960
     30          1           0        3.119560    3.637670    3.305430
     31          6           0        0.857970    3.535250   -0.327870
     32          8           0        1.432130    2.698410   -1.108360
     33          6           0        1.064160    4.980860   -0.583460
     34          1           0        1.935790    5.298320    0.010440
     35          1           0        0.196090    5.555880   -0.244730
     36          1           0        1.279470    5.160640   -1.640610
 ---------------------------------------------------------------------
                    Distance matrix (angstroms):
                    1          2          3          4          5
     1  C    0.000000
     2  C    1.536884   0.000000
     3  C    2.558115   1.516523   0.000000
     4  C    3.932316   2.541837   1.550158   0.000000
     5  C    4.294565   2.793387   2.540805   1.545257   0.000000
     6  C    3.603315   2.379409   2.639379   2.514451   1.535859
     7  O    2.417690   1.464893   2.442419   2.977080   2.461018
     8  O    5.006251   3.762853   2.475319   1.411464   2.389319
     9  O    3.012652   2.477005   1.495113   2.487424   3.257406
    10  O    1.413884   2.415083   2.954713   4.364289   5.098929
    11  H    1.102924   2.162182   3.490705   4.702471   4.780464
    12  H    1.100872   2.173483   2.806256   4.257081   4.625134
    13  H    2.179087   1.103304   2.128271   2.709794   2.898866
    14  H    2.733314   2.143696   1.096767   2.221675   3.490669
    15  H    4.284330   2.920378   2.148216   1.106504   2.145223
    16  H    5.301009   3.837575   3.375438   2.163302   1.104533
    17  H    4.389828   3.311446   3.730733   3.508620   2.244138
    18  O    4.622575   3.131210   3.305596   2.388574   1.412144
    19  C    2.392104   3.224255   4.002537   5.191368   5.820847
    20  H    3.297143   4.083325   4.577519   5.742686   6.568908
    21  H    2.686737   3.778990   4.785779   6.016665   6.462402
    22  H    2.715455   3.045439   3.906912   4.827255   5.343168
    23  C    5.736499   4.324068   4.652561   3.704502   2.402508
    24  H    5.614291   4.347029   4.927556   4.241069   2.802902
    25  H    6.515751   5.047096   5.110354   3.937588   2.628174
    26  H    6.244689   4.888758   5.306548   4.378299   3.292787
    27  C    5.579525   4.538238   3.081149   2.394262   3.705880
    28  H    5.154042   4.381423   2.876587   2.782233   4.221144
    29  H    5.850446   4.762392   3.437495   2.622581   3.949905
    30  H    6.564400   5.524454   4.062390   3.289843   4.389713
    31  C    3.813932   3.151706   2.441960   2.891889   3.135627
    32  O    4.100982   3.184877   2.868664   2.914484   2.489346
    33  C    4.972140   4.555842   3.756762   4.171735   4.475758
    34  H    5.742583   5.145174   4.100667   4.196154   4.611580
    35  H    4.893969   4.782288   3.988028   4.704127   5.229362
    36  H    5.508944   5.127836   4.559821   4.907680   4.904260
                    6          7          8          9         10
     6  C    0.000000
     7  O    1.346912   0.000000
     8  O    3.328283   4.063618   0.000000
     9  O    2.925042   2.901628   2.722815   0.000000
    10  O    4.733329   3.667832   5.372063   3.550984   0.000000
    11  H    3.937912   2.604924   5.874346   3.982665   2.101314
    12  H    3.728357   2.687816   5.101731   2.668621   2.039659
    13  H    2.883808   2.086395   4.089219   3.414214   2.695204
    14  H    3.727026   3.383068   2.945852   2.030867   2.564574
    15  H    3.321691   3.600254   2.091150   3.385077   4.471550
    16  H    2.165606   3.366314   2.358716   3.798205   6.113848
    17  H    1.094772   1.995513   4.195781   3.884902   5.630164
    18  O    2.416612   2.912610   3.461356   4.375717   5.335311
    19  C    5.573376   4.430443   6.344306   4.867529   1.436483
    20  H    6.460420   5.393716   6.787001   5.410955   2.035774
    21  H    6.004432   4.742169   7.204605   5.515447   2.097652
    22  H    5.278245   4.215962   6.089069   5.036259   2.118035
    23  C    3.080234   3.726973   4.562755   5.563710   6.587041
    24  H    2.900540   3.443512   5.145900   5.691016   6.636637
    25  H    3.475607   4.407612   4.472648   5.865880   7.367090
    26  H    4.038914   4.474251   5.309896   6.382638   6.969092
    27  C    4.649139   5.174489   1.439616   3.310258   5.595668
    28  H    4.887458   5.186357   2.114846   2.884067   5.018524
    29  H    5.097571   5.537740   2.098609   4.049827   5.716883
    30  H    5.335002   6.018483   2.035288   4.040650   6.623557
    31  C    2.542027   2.943442   2.866145   1.301998   4.643100
    32  O    1.617935   2.440247   3.093836   2.301149   5.161879
    33  C    3.901209   4.337217   3.743829   2.362404   5.696251
    34  H    4.373226   5.011590   3.410026   2.850103   6.347424
    35  H    4.624488   4.793376   4.343617   2.494488   5.443202
    36  H    4.112767   4.615830   4.539208   3.237939   6.401866
                   11         12         13         14         15
    11  H    0.000000
    12  H    1.781576   0.000000
    13  H    2.515694   3.088620   0.000000
    14  H    3.757810   3.044651   2.520669   0.000000
    15  H    4.996851   4.824476   2.672522   2.422920   0.000000
    16  H    5.809511   5.509879   4.000935   4.296049   2.781155
    17  H    4.516787   4.460367   3.730797   4.816986   4.263849
    18  O    4.896077   5.222980   2.727883   4.078001   2.333715
    19  C    2.506073   3.252748   3.022293   3.582332   5.038368
    20  H    3.551149   4.023033   3.866728   3.920868   5.488700
    21  H    2.377925   3.439713   3.644333   4.506879   5.945234
    22  H    2.741166   3.754725   2.477524   3.596592   4.508591
    23  C    5.822494   6.299305   3.933472   5.491924   3.704192
    24  H    5.541240   6.109280   4.081371   5.854618   4.424328
    25  H    6.703732   6.972968   4.779368   5.972389   4.017890
    26  H    6.249009   6.940368   4.274600   6.019185   4.118912
    27  C    6.558030   5.679685   4.794098   3.033133   2.604045
    28  H    6.206489   5.151468   4.769535   2.563251   3.071261
    29  H    6.780860   6.137230   4.769705   3.229152   2.344677
    30  H    7.547766   6.568039   5.828852   4.074540   3.561850
    31  C    4.597078   3.342092   4.108269   3.236508   3.966735
    32  O    4.656458   3.802451   4.009075   3.887088   3.983534
    33  C    5.765227   4.272055   5.549366   4.340785   5.235282
    34  H    6.602939   5.150302   6.039543   4.611419   5.215681
    35  H    5.738084   4.067060   5.818480   4.343384   5.693706
    36  H    6.154842   4.750486   6.136175   5.261122   6.005632
                   16         17         18         19         20
    16  H    0.000000
    17  H    2.534550   0.000000
    18  O    2.096821   2.864181   0.000000
    19  C    6.897657   6.397580   5.716824   0.000000
    20  H    7.615612   7.347669   6.481005   1.095294   0.000000
    21  H    7.551426   6.704382   6.324320   1.101850   1.791774
    22  H    6.433012   6.074181   5.007266   1.103517   1.788594
    23  C    2.595784   3.003403   1.440378   6.885908   7.715272
    24  H    3.055360   2.498077   2.116863   6.948753   7.875335
    25  H    2.337493   3.314326   2.099584   7.782651   8.574574
    26  H    3.560057   4.009513   2.033442   7.055367   7.840711
    27  C    3.743614   5.584149   4.569809   6.538321   6.753998
    28  H    4.438823   5.892185   5.132967   6.057041   6.185537
    29  H    4.076190   6.044225   4.492350   6.450855   6.585714
    30  H    4.170357   6.170828   5.326236   7.611788   7.810566
    31  C    3.390220   3.255739   4.444866   5.930009   6.580202
    32  O    2.636476   2.073409   3.771348   6.291586   7.077752
    33  C    4.497087   4.418590   5.842177   7.073485   7.634637
    34  H    4.431330   4.910446   6.013380   7.703873   8.192363
    35  H    5.392512   5.229966   6.537986   6.869956   7.332817
    36  H    4.828817   4.367544   6.255820   7.752860   8.399407
                   21         22         23         24         25
    21  H    0.000000
    22  H    1.798140   0.000000
    23  C    7.367290   6.124509   0.000000
    24  H    7.281017   6.255473   1.101351   0.000000
    25  H    8.320714   7.058301   1.101594   1.803465   0.000000
    26  H    7.526621   6.172962   1.094717   1.785626   1.792480
    27  C    7.507635   6.358120   5.760994   6.438768   5.689109
    28  H    7.020437   6.051629   6.423242   6.999931   6.478792
    29  H    7.478400   6.142460   5.698953   6.501617   5.675130
    30  H    8.572087   7.451556   6.377476   7.070116   6.131944
    31  C    6.467041   6.036964   5.385619   5.388452   5.530887
    32  O    6.751352   6.228406   4.452166   4.325263   4.559020
    33  C    7.576187   7.316314   6.700906   6.679244   6.709152
    34  H    8.313491   7.877103   6.863728   6.982600   6.723010
    35  H    7.347238   7.267318   7.511729   7.492036   7.612104
    36  H    8.146934   7.988151   6.925222   6.759299   6.888756
                   26         27         28         29         30
    26  H    0.000000
    27  C    6.368310   0.000000
    28  H    7.046380   1.102233   0.000000
    29  H    6.131444   1.101461   1.801575   0.000000
    30  H    7.022377   1.094809   1.790333   1.791280   0.000000
    31  C    6.343417   3.788595   3.612419   4.660974   4.280905
    32  O    5.478358   4.341190   4.443788   5.097903   4.817797
    33  C    7.700360   4.402142   4.105966   5.428305   4.599162
    34  H    7.856206   3.917279   3.736304   5.001761   3.875052
    35  H    8.465785   4.738656   4.192591   5.746216   4.982955
    36  H    7.973760   5.353416   5.154464   6.371799   5.492602
                   31         32         33         34         35
    31  C    0.000000
    32  O    1.280283   0.000000
    33  C    1.482440   2.370759   0.000000
    34  H    2.093935   2.874877   1.101470   0.000000
    35  H    2.127896   3.230911   1.094957   1.777078   0.000000
    36  H    2.131394   2.523722   1.093730   1.782043   1.810637
                   36
    36  H    0.000000
 Stoichiometry    C11H19O6(1+)
 Framework group  C1[X(C11H19O6)]
 Deg. of freedom   102
 Full point group                 C1      NOp   1
 Largest Abelian subgroup         C1      NOp   1
 Largest concise Abelian subgroup C1      NOp   1
                         Standard orientation:                         
 ---------------------------------------------------------------------
 Center     Atomic      Atomic             Coordinates (Angstroms)
 Number     Number       Type             X           Y           Z
 ---------------------------------------------------------------------
      1          6           0        2.596885   -0.162881   -0.740446
      2          6           0        1.278873    0.461895   -0.256182
      3          6           0        0.449772   -0.458781    0.618341
      4          6           0       -0.836152    0.235545    1.135353
      5          6           0       -1.398342    1.193321    0.060911
      6          6           0       -0.824434    0.812758   -1.311920
      7          8           0        0.515369    0.844084   -1.446521
      8          8           0       -1.860599   -0.671838    1.480893
      9          8           0        0.081538   -1.702541   -0.125181
     10          8           0        3.393458   -0.521745    0.371199
     11          1           0        3.103358    0.549415   -1.413172
     12          1           0        2.388175   -1.079274   -1.313668
     13          1           0        1.482695    1.378466    0.323157
     14          1           0        1.079222   -0.852021    1.425839
     15          1           0       -0.535720    0.861590    1.996840
     16          1           0       -2.496954    1.081584    0.037251
     17          1           0       -1.284568    1.299607   -2.177819
     18          8           0       -1.000866    2.503862    0.405360
     19          6           0        4.336082    0.487019    0.767859
     20          1           0        4.883581    0.076011    1.622837
     21          1           0        5.044461    0.702375   -0.048164
     22          1           0        3.842160    1.424002    1.077462
     23          6           0       -1.747112    3.550720   -0.244175
     24          1           0       -1.499075    3.633749   -1.314015
     25          1           0       -2.829978    3.389767   -0.121682
     26          1           0       -1.458495    4.479653    0.258008
     27          6           0       -1.618695   -1.400113    2.698921
     28          1           0       -0.810834   -2.140811    2.582112
     29          1           0       -1.373214   -0.710266    3.521760
     30          1           0       -2.553177   -1.921378    2.930508
     31          6           0       -0.879219   -1.709939   -1.003867
     32          8           0       -1.384356   -0.682045   -1.576052
     33          6           0       -1.404455   -3.044510   -1.378936
     34          1           0       -2.224200   -3.282348   -0.682740
     35          1           0       -0.627822   -3.807265   -1.260707
     36          1           0       -1.805178   -3.031279   -2.396527
 ---------------------------------------------------------------------
 Rotational constants (GHZ):      0.5164768      0.4109410      0.3339718
 Leave Link  202 at Tue Oct 24 12:45:25 2017, MaxMem= 13421772800 cpu:         0.5
 (Enter /share/apps//g09/l301.exe)
 Standard basis: 6-311+G(d,p) (5D, 7F)
 Ernie: Thresh=  0.10000D-02 Tol=  0.10000D-05 Strict=F.
 There are   505 symmetry adapted cartesian basis functions of A   symmetry.
 There are   488 symmetry adapted basis functions of A   symmetry.
   488 basis functions,   764 primitive gaussians,   505 cartesian basis functions
    66 alpha electrons       66 beta electrons
       nuclear repulsion energy      1440.3287442448 Hartrees.
 IExCor= 1009 DFT=T Ex+Corr=PBE1PBE ExCW=0 ScaHFX=  0.250000
 ScaDFX=  0.750000  0.750000  1.000000  1.000000 ScalE2=  1.000000  1.000000
 IRadAn=      0 IRanWt=     -1 IRanGd=            0 ICorTp=0 IEmpDi=131
 NAtoms=   36 NActive=   36 NUniq=   36 SFac= 1.00D+00 NAtFMM=   60 NAOKFM=F Big=F
 Integral buffers will be    131072 words long.
 Raffenetti 2 integral format.
 Two-electron integral symmetry is turned on.
 R6Disp:  Grimme-D3 Dispersion energy=       -0.0248177976 Hartrees.
 Nuclear repulsion after empirical dispersion term =     1440.3039264472 Hartrees.
 Leave Link  301 at Tue Oct 24 12:45:25 2017, MaxMem= 13421772800 cpu:         1.9
 (Enter /share/apps//g09/l302.exe)
 NPDir=0 NMtPBC=     1 NCelOv=     1 NCel=       1 NClECP=     1 NCelD=      1
         NCelK=      1 NCelE2=     1 NClLst=     1 CellRange=     0.0.
 One-electron integrals computed using PRISM.
 NBasis=   488 RedAO= T EigKep=  1.58D-06  NBF=   488
 NBsUse=   488 1.00D-06 EigRej= -1.00D+00 NBFU=   488
 Precomputing XC quadrature grid using
 IXCGrd= 4 IRadAn=           0 IRanWt=          -1 IRanGd=           0 AccXCQ= 0.00D+00.
 Generated NRdTot=       0 NPtTot=           0 NUsed=           0 NTot=          32
 NSgBfM=   504   504   504   504   504 MxSgAt=    36 MxSgA2=    36.
 Leave Link  302 at Tue Oct 24 12:45:26 2017, MaxMem= 13421772800 cpu:        11.8
 (Enter /share/apps//g09/l303.exe)
 DipDrv:  MaxL=1.
 Leave Link  303 at Tue Oct 24 12:45:27 2017, MaxMem= 13421772800 cpu:         7.0
 (Enter /share/apps//g09/l401.exe)
 ExpMin= 4.38D-02 ExpMax= 8.59D+03 ExpMxC= 1.30D+03 IAcc=2 IRadAn=         4 AccDes= 0.00D+00
 Harris functional with IExCor= 1009 and IRadAn=       4 diagonalized for initial guess.
 HarFok:  IExCor= 1009 AccDes= 0.00D+00 IRadAn=         4 IDoV= 1 UseB2=F ITyADJ=14
 ICtDFT=  3500011 ScaDFX=  1.000000  1.000000  1.000000  1.000000
 FoFCou: FMM=F IPFlag=           0 FMFlag=      100000 FMFlg1=           0
         NFxFlg=           0 DoJE=T BraDBF=F KetDBF=T FulRan=T
         wScrn=  0.000000 ICntrl=     500 IOpCl=  0 I1Cent=   200000004 NGrid=           0
         NMat0=    1 NMatS0=      1 NMatT0=    0 NMatD0=    1 NMtDS0=    0 NMtDT0=    0
 Petite list used in FoFCou.
 Harris En= -881.103631534672    
 JPrj=0 DoOrth=F DoCkMO=F.
 Leave Link  401 at Tue Oct 24 12:45:30 2017, MaxMem= 13421772800 cpu:        41.2
 (Enter /share/apps//g09/l502.exe)
 Closed shell SCF:
 Using DIIS extrapolation, IDIIS=  1040.
 Integral symmetry usage will be decided dynamically.
 Keep R1 ints in memory in canonical form, NReq=7183787934.
 IVT=      797493 IEndB=      797493 NGot= 13421772800 MDV=  6302761722
 LenX=  6302761722 LenY=  6302506192
 Requested convergence on RMS density matrix=1.00D-08 within 128 cycles.
 Requested convergence on MAX density matrix=1.00D-06.
 Requested convergence on             energy=1.00D-06.
 No special actions if energy rises.
 FoFCou: FMM=F IPFlag=           0 FMFlag=           0 FMFlg1=           0
         NFxFlg=           0 DoJE=F BraDBF=F KetDBF=F FulRan=T
         wScrn=  0.000000 ICntrl=     600 IOpCl=  0 I1Cent=           0 NGrid=           0
         NMat0=    1 NMatS0= 119316 NMatT0=    0 NMatD0=    1 NMtDS0=    0 NMtDT0=    0
 Symmetry not used in FoFCou.

 Cycle   1  Pass 1  IDiag  1:
 E= -880.653207446382    
 DIIS: error= 1.35D-02 at cycle   1 NSaved=   1.
 NSaved= 1 IEnMin= 1 EnMin= -880.653207446382     IErMin= 1 ErrMin= 1.35D-02
 ErrMax= 1.35D-02  0.00D+00 EMaxC= 1.00D-01 BMatC= 3.68D-01 BMatP= 3.68D-01
 IDIUse=3 WtCom= 8.65D-01 WtEn= 1.35D-01
 Coeff-Com:  0.100D+01
 Coeff-En:   0.100D+01
 Coeff:      0.100D+01
 Gap=     0.123 Goal=   None    Shift=    0.000
 GapD=    0.123 DampG=1.000 DampE=0.500 DampFc=0.5000 IDamp=-1.
 Damping current iteration by 5.00D-01
 RMSDP=1.70D-02 MaxDP=2.81D+00              OVMax= 1.22D-01

 Cycle   2  Pass 1  IDiag  1:
 E= -880.778014646702     Delta-E=       -0.124807200320 Rises=F Damp=T
 DIIS: error= 4.48D-03 at cycle   2 NSaved=   2.
 NSaved= 2 IEnMin= 2 EnMin= -880.778014646702     IErMin= 2 ErrMin= 4.48D-03
 ErrMax= 4.48D-03  0.00D+00 EMaxC= 1.00D-01 BMatC= 2.86D-02 BMatP= 3.68D-01
 IDIUse=3 WtCom= 9.55D-01 WtEn= 4.48D-02
 Coeff-Com: -0.167D-01 0.102D+01
 Coeff-En:   0.365D-01 0.963D+00
 Coeff:     -0.143D-01 0.101D+01
 Gap=     0.228 Goal=   None    Shift=    0.000
 RMSDP=7.87D-03 MaxDP=1.39D+00 DE=-1.25D-01 OVMax= 9.17D-02

 Cycle   3  Pass 1  IDiag  1:
 E= -880.910955649449     Delta-E=       -0.132941002747 Rises=F Damp=F
 DIIS: error= 4.58D-03 at cycle   3 NSaved=   3.
 NSaved= 3 IEnMin= 3 EnMin= -880.910955649449     IErMin= 2 ErrMin= 4.48D-03
 ErrMax= 4.58D-03  0.00D+00 EMaxC= 1.00D-01 BMatC= 1.89D-02 BMatP= 2.86D-02
 IDIUse=3 WtCom= 9.54D-01 WtEn= 4.58D-02
 Coeff-Com: -0.937D-01 0.470D+00 0.624D+00
 Coeff-En:   0.000D+00 0.000D+00 0.100D+01
 Coeff:     -0.894D-01 0.448D+00 0.641D+00
 Gap=     0.196 Goal=   None    Shift=    0.000
 RMSDP=2.16D-03 MaxDP=3.02D-01 DE=-1.33D-01 OVMax= 2.41D-02

 Cycle   4  Pass 1  IDiag  1:
 E= -880.922756992989     Delta-E=       -0.011801343540 Rises=F Damp=F
 DIIS: error= 2.21D-03 at cycle   4 NSaved=   4.
 NSaved= 4 IEnMin= 4 EnMin= -880.922756992989     IErMin= 4 ErrMin= 2.21D-03
 ErrMax= 2.21D-03  0.00D+00 EMaxC= 1.00D-01 BMatC= 3.49D-03 BMatP= 1.89D-02
 IDIUse=3 WtCom= 9.78D-01 WtEn= 2.21D-02
 Coeff-Com: -0.462D-01 0.149D+00 0.354D+00 0.543D+00
 Coeff-En:   0.000D+00 0.000D+00 0.115D+00 0.885D+00
 Coeff:     -0.452D-01 0.146D+00 0.349D+00 0.550D+00
 Gap=     0.198 Goal=   None    Shift=    0.000
 RMSDP=1.25D-03 MaxDP=2.03D-01 DE=-1.18D-02 OVMax= 7.49D-03

 Cycle   5  Pass 1  IDiag  1:
 E= -880.925305218653     Delta-E=       -0.002548225663 Rises=F Damp=F
 DIIS: error= 3.15D-04 at cycle   5 NSaved=   5.
 NSaved= 5 IEnMin= 5 EnMin= -880.925305218653     IErMin= 5 ErrMin= 3.15D-04
 ErrMax= 3.15D-04  0.00D+00 EMaxC= 1.00D-01 BMatC= 1.12D-04 BMatP= 3.49D-03
 IDIUse=3 WtCom= 9.97D-01 WtEn= 3.15D-03
 Coeff-Com: -0.126D-01 0.279D-01 0.101D+00 0.230D+00 0.654D+00
 Coeff-En:   0.000D+00 0.000D+00 0.000D+00 0.000D+00 0.100D+01
 Coeff:     -0.125D-01 0.278D-01 0.101D+00 0.229D+00 0.655D+00
 Gap=     0.200 Goal=   None    Shift=    0.000
 RMSDP=1.08D-04 MaxDP=1.07D-02 DE=-2.55D-03 OVMax= 1.54D-03

 Cycle   6  Pass 1  IDiag  1:
 E= -880.925372394791     Delta-E=       -0.000067176139 Rises=F Damp=F
 DIIS: error= 1.47D-04 at cycle   6 NSaved=   6.
 NSaved= 6 IEnMin= 6 EnMin= -880.925372394791     IErMin= 6 ErrMin= 1.47D-04
 ErrMax= 1.47D-04  0.00D+00 EMaxC= 1.00D-01 BMatC= 1.82D-05 BMatP= 1.12D-04
 IDIUse=3 WtCom= 9.99D-01 WtEn= 1.47D-03
 Coeff-Com: -0.519D-02 0.915D-02 0.420D-01 0.110D+00 0.394D+00 0.451D+00
 Coeff-En:   0.000D+00 0.000D+00 0.000D+00 0.000D+00 0.549D-01 0.945D+00
 Coeff:     -0.518D-02 0.914D-02 0.420D-01 0.110D+00 0.393D+00 0.452D+00
 Gap=     0.200 Goal=   None    Shift=    0.000
 RMSDP=5.66D-05 MaxDP=1.03D-02 DE=-6.72D-05 OVMax= 5.58D-04

 Cycle   7  Pass 1  IDiag  1:
 E= -880.925385332881     Delta-E=       -0.000012938090 Rises=F Damp=F
 DIIS: error= 5.29D-05 at cycle   7 NSaved=   7.
 NSaved= 7 IEnMin= 7 EnMin= -880.925385332881     IErMin= 7 ErrMin= 5.29D-05
 ErrMax= 5.29D-05  0.00D+00 EMaxC= 1.00D-01 BMatC= 1.22D-06 BMatP= 1.82D-05
 IDIUse=1 WtCom= 1.00D+00 WtEn= 0.00D+00
 Coeff-Com: -0.182D-02 0.276D-02 0.149D-01 0.429D-01 0.171D+00 0.257D+00
 Coeff-Com:  0.513D+00
 Coeff:     -0.182D-02 0.276D-02 0.149D-01 0.429D-01 0.171D+00 0.257D+00
 Coeff:      0.513D+00
 Gap=     0.200 Goal=   None    Shift=    0.000
 RMSDP=1.38D-05 MaxDP=1.49D-03 DE=-1.29D-05 OVMax= 2.06D-04

 Cycle   8  Pass 1  IDiag  1:
 E= -880.925386185480     Delta-E=       -0.000000852599 Rises=F Damp=F
 DIIS: error= 1.82D-05 at cycle   8 NSaved=   8.
 NSaved= 8 IEnMin= 8 EnMin= -880.925386185480     IErMin= 8 ErrMin= 1.82D-05
 ErrMax= 1.82D-05  0.00D+00 EMaxC= 1.00D-01 BMatC= 1.44D-07 BMatP= 1.22D-06
 IDIUse=1 WtCom= 1.00D+00 WtEn= 0.00D+00
 Coeff-Com:  0.308D-04-0.284D-03-0.371D-03 0.150D-02 0.131D-01 0.423D-01
 Coeff-Com:  0.276D+00 0.668D+00
 Coeff:      0.308D-04-0.284D-03-0.371D-03 0.150D-02 0.131D-01 0.423D-01
 Coeff:      0.276D+00 0.668D+00
 Gap=     0.200 Goal=   None    Shift=    0.000
 RMSDP=9.54D-06 MaxDP=2.30D-03 DE=-8.53D-07 OVMax= 5.62D-05

 Cycle   9  Pass 1  IDiag  1:
 E= -880.925386285618     Delta-E=       -0.000000100138 Rises=F Damp=F
 DIIS: error= 4.34D-06 at cycle   9 NSaved=   9.
 NSaved= 9 IEnMin= 9 EnMin= -880.925386285618     IErMin= 9 ErrMin= 4.34D-06
 ErrMax= 4.34D-06  0.00D+00 EMaxC= 1.00D-01 BMatC= 1.71D-08 BMatP= 1.44D-07
 IDIUse=1 WtCom= 1.00D+00 WtEn= 0.00D+00
 Coeff-Com:  0.912D-04-0.269D-03-0.917D-03-0.119D-02-0.152D-02 0.943D-02
 Coeff-Com:  0.127D+00 0.373D+00 0.495D+00
 Coeff:      0.912D-04-0.269D-03-0.917D-03-0.119D-02-0.152D-02 0.943D-02
 Coeff:      0.127D+00 0.373D+00 0.495D+00
 Gap=     0.200 Goal=   None    Shift=    0.000
 RMSDP=1.88D-06 MaxDP=2.22D-04 DE=-1.00D-07 OVMax= 1.97D-05

 Cycle  10  Pass 1  IDiag  1:
 E= -880.925386297778     Delta-E=       -0.000000012160 Rises=F Damp=F
 DIIS: error= 9.20D-07 at cycle  10 NSaved=  10.
 NSaved=10 IEnMin=10 EnMin= -880.925386297778     IErMin=10 ErrMin= 9.20D-07
 ErrMax= 9.20D-07  0.00D+00 EMaxC= 1.00D-01 BMatC= 9.38D-10 BMatP= 1.71D-08
 IDIUse=1 WtCom= 1.00D+00 WtEn= 0.00D+00
 Coeff-Com:  0.422D-04-0.904D-04-0.437D-03-0.858D-03-0.301D-02-0.196D-02
 Coeff-Com:  0.211D-01 0.758D-01 0.217D+00 0.693D+00
 Coeff:      0.422D-04-0.904D-04-0.437D-03-0.858D-03-0.301D-02-0.196D-02
 Coeff:      0.211D-01 0.758D-01 0.217D+00 0.693D+00
 Gap=     0.200 Goal=   None    Shift=    0.000
 RMSDP=5.86D-07 MaxDP=9.59D-05 DE=-1.22D-08 OVMax= 4.80D-06

 Cycle  11  Pass 1  IDiag  1:
 E= -880.925386298518     Delta-E=       -0.000000000740 Rises=F Damp=F
 DIIS: error= 2.02D-07 at cycle  11 NSaved=  11.
 NSaved=11 IEnMin=11 EnMin= -880.925386298518     IErMin=11 ErrMin= 2.02D-07
 ErrMax= 2.02D-07  0.00D+00 EMaxC= 1.00D-01 BMatC= 6.02D-11 BMatP= 9.38D-10
 IDIUse=1 WtCom= 1.00D+00 WtEn= 0.00D+00
 Coeff-Com:  0.127D-04-0.248D-04-0.144D-03-0.308D-03-0.121D-02-0.127D-02
 Coeff-Com:  0.281D-02 0.135D-01 0.667D-01 0.301D+00 0.619D+00
 Coeff:      0.127D-04-0.248D-04-0.144D-03-0.308D-03-0.121D-02-0.127D-02
 Coeff:      0.281D-02 0.135D-01 0.667D-01 0.301D+00 0.619D+00
 Gap=     0.200 Goal=   None    Shift=    0.000
 RMSDP=1.28D-07 MaxDP=1.70D-05 DE=-7.40D-10 OVMax= 1.37D-06

 Cycle  12  Pass 1  IDiag  1:
 E= -880.925386298495     Delta-E=        0.000000000023 Rises=F Damp=F
 DIIS: error= 9.53D-08 at cycle  12 NSaved=  12.
 NSaved=12 IEnMin=11 EnMin= -880.925386298518     IErMin=12 ErrMin= 9.53D-08
 ErrMax= 9.53D-08  0.00D+00 EMaxC= 1.00D-01 BMatC= 9.71D-12 BMatP= 6.02D-11
 IDIUse=1 WtCom= 1.00D+00 WtEn= 0.00D+00
 Coeff-Com:  0.693D-06-0.187D-06-0.162D-04-0.431D-04-0.208D-03-0.345D-03
 Coeff-Com: -0.141D-02-0.313D-02 0.565D-02 0.650D-01 0.319D+00 0.615D+00
 Coeff:      0.693D-06-0.187D-06-0.162D-04-0.431D-04-0.208D-03-0.345D-03
 Coeff:     -0.141D-02-0.313D-02 0.565D-02 0.650D-01 0.319D+00 0.615D+00
 Gap=     0.200 Goal=   None    Shift=    0.000
 RMSDP=9.66D-08 MaxDP=1.83D-05 DE= 2.27D-11 OVMax= 7.67D-07

 Cycle  13  Pass 1  IDiag  1:
 E= -880.925386298524     Delta-E=       -0.000000000029 Rises=F Damp=F
 DIIS: error= 2.91D-08 at cycle  13 NSaved=  13.
 NSaved=13 IEnMin=13 EnMin= -880.925386298524     IErMin=13 ErrMin= 2.91D-08
 ErrMax= 2.91D-08  0.00D+00 EMaxC= 1.00D-01 BMatC= 8.46D-13 BMatP= 9.71D-12
 IDIUse=1 WtCom= 1.00D+00 WtEn= 0.00D+00
 Coeff-Com: -0.469D-06 0.149D-05 0.141D-05-0.108D-05-0.182D-04-0.714D-04
 Coeff-Com: -0.882D-03-0.234D-02-0.163D-02 0.962D-02 0.111D+00 0.308D+00
 Coeff-Com:  0.576D+00
 Coeff:     -0.469D-06 0.149D-05 0.141D-05-0.108D-05-0.182D-04-0.714D-04
 Coeff:     -0.882D-03-0.234D-02-0.163D-02 0.962D-02 0.111D+00 0.308D+00
 Coeff:      0.576D+00
 Gap=     0.200 Goal=   None    Shift=    0.000
 RMSDP=1.44D-08 MaxDP=1.52D-06 DE=-2.86D-11 OVMax= 1.28D-07

 Cycle  14  Pass 1  IDiag  1:
 E= -880.925386298536     Delta-E=       -0.000000000013 Rises=F Damp=F
 DIIS: error= 1.22D-08 at cycle  14 NSaved=  14.
 NSaved=14 IEnMin=14 EnMin= -880.925386298536     IErMin=14 ErrMin= 1.22D-08
 ErrMax= 1.22D-08  0.00D+00 EMaxC= 1.00D-01 BMatC= 1.03D-13 BMatP= 8.46D-13
 IDIUse=1 WtCom= 1.00D+00 WtEn= 0.00D+00
 Coeff-Com: -0.317D-06 0.778D-06 0.273D-05 0.449D-05 0.162D-04 0.598D-05
 Coeff-Com: -0.306D-03-0.868D-03-0.156D-02-0.382D-02 0.170D-01 0.827D-01
 Coeff-Com:  0.299D+00 0.607D+00
 Coeff:     -0.317D-06 0.778D-06 0.273D-05 0.449D-05 0.162D-04 0.598D-05
 Coeff:     -0.306D-03-0.868D-03-0.156D-02-0.382D-02 0.170D-01 0.827D-01
 Coeff:      0.299D+00 0.607D+00
 Gap=     0.200 Goal=   None    Shift=    0.000
 RMSDP=1.80D-08 MaxDP=3.39D-06 DE=-1.27D-11 OVMax= 5.96D-08

 Cycle  15  Pass 1  IDiag  1:
 E= -880.925386298538     Delta-E=       -0.000000000002 Rises=F Damp=F
 DIIS: error= 1.23D-09 at cycle  15 NSaved=  15.
 NSaved=15 IEnMin=15 EnMin= -880.925386298538     IErMin=15 ErrMin= 1.23D-09
 ErrMax= 1.23D-09  0.00D+00 EMaxC= 1.00D-01 BMatC= 3.05D-15 BMatP= 1.03D-13
 IDIUse=1 WtCom= 1.00D+00 WtEn= 0.00D+00
 Coeff-Com: -0.633D-07 0.140D-06 0.760D-06 0.140D-05 0.622D-05 0.628D-05
 Coeff-Com: -0.368D-04-0.112D-03-0.356D-03-0.188D-02-0.162D-02 0.554D-02
 Coeff-Com:  0.582D-01 0.203D+00 0.737D+00
 Coeff:     -0.633D-07 0.140D-06 0.760D-06 0.140D-05 0.622D-05 0.628D-05
 Coeff:     -0.368D-04-0.112D-03-0.356D-03-0.188D-02-0.162D-02 0.554D-02
 Coeff:      0.582D-01 0.203D+00 0.737D+00
 Gap=     0.200 Goal=   None    Shift=    0.000
 RMSDP=4.84D-08 MaxDP=9.24D-06 DE=-1.82D-12 OVMax= 2.23D-08

 Cycle  16  Pass 1  IDiag  1:
 E= -880.925386298534     Delta-E=        0.000000000005 Rises=F Damp=F
 DIIS: error= 6.37D-10 at cycle  16 NSaved=  16.
 NSaved=16 IEnMin=15 EnMin= -880.925386298538     IErMin=16 ErrMin= 6.37D-10
 ErrMax= 6.37D-10  0.00D+00 EMaxC= 1.00D-01 BMatC= 4.13D-16 BMatP= 3.05D-15
 IDIUse=1 WtCom= 1.00D+00 WtEn= 0.00D+00
 Large coefficients: NSaved= 16 BigCof=    0.00 CofMax=   10.00 Det=-2.58D-15
 Inversion failed.  Reducing to 15 matrices.
 Coeff-Com: -0.289D-08 0.107D-06 0.189D-06 0.123D-05 0.180D-05 0.266D-05
 Coeff-Com:  0.460D-05-0.555D-04-0.579D-03-0.165D-02-0.266D-02 0.792D-02
 Coeff-Com:  0.534D-01 0.342D+00 0.602D+00
 Coeff:     -0.289D-08 0.107D-06 0.189D-06 0.123D-05 0.180D-05 0.266D-05
 Coeff:      0.460D-05-0.555D-04-0.579D-03-0.165D-02-0.266D-02 0.792D-02
 Coeff:      0.534D-01 0.342D+00 0.602D+00
 Gap=     0.200 Goal=   None    Shift=    0.000
 RMSDP=2.21D-08 MaxDP=4.50D-06 DE= 4.55D-12 OVMax= 4.16D-09

 Cycle  17  Pass 1  IDiag  1:
 E= -880.925386298534     Delta-E=       -0.000000000000 Rises=F Damp=F
 DIIS: error= 3.30D-10 at cycle  17 NSaved=  16.
 NSaved=16 IEnMin=14 EnMin= -880.925386298538     IErMin=16 ErrMin= 3.30D-10
 ErrMax= 3.30D-10  0.00D+00 EMaxC= 1.00D-01 BMatC= 6.73D-17 BMatP= 4.13D-16
 IDIUse=1 WtCom= 1.00D+00 WtEn= 0.00D+00
 Large coefficients: NSaved= 16 BigCof=    0.00 CofMax=   10.00 Det=-5.87D-16
 Inversion failed.  Reducing to 15 matrices.
 Coeff-Com:  0.271D-07 0.594D-07 0.243D-06 0.472D-06 0.463D-05 0.101D-04
 Coeff-Com:  0.225D-05-0.910D-04-0.608D-03-0.186D-02-0.309D-02 0.501D-03
 Coeff-Com:  0.758D-01 0.318D+00 0.611D+00
 Coeff:      0.271D-07 0.594D-07 0.243D-06 0.472D-06 0.463D-05 0.101D-04
 Coeff:      0.225D-05-0.910D-04-0.608D-03-0.186D-02-0.309D-02 0.501D-03
 Coeff:      0.758D-01 0.318D+00 0.611D+00
 Gap=     0.200 Goal=   None    Shift=    0.000
 RMSDP=3.71D-09 MaxDP=5.09D-07 DE=-4.55D-13 OVMax= 2.37D-09

 SCF Done:  E(RPBE1PBE) =  -880.925386299     A.U. after   17 cycles
            NFock= 17  Conv=0.37D-08     -V/T= 2.0043
 KE= 8.771240999194D+02 PE=-4.923268757837D+03 EE= 1.724915345172D+03
 Leave Link  502 at Tue Oct 24 12:49:26 2017, MaxMem= 13421772800 cpu:      1058.8
 (Enter /share/apps//g09/l601.exe)
 Copying SCF densities to generalized density rwf, IOpCl= 0 IROHF=0.

 **********************************************************************

            Population analysis using the SCF density.

 **********************************************************************

 Orbital symmetries:
       Occupied  (A) (A) (A) (A) (A) (A) (A) (A) (A) (A) (A) (A)
                 (A) (A) (A) (A) (A) (A) (A) (A) (A) (A) (A) (A)
                 (A) (A) (A) (A) (A) (A) (A) (A) (A) (A) (A) (A)
                 (A) (A) (A) (A) (A) (A) (A) (A) (A) (A) (A) (A)
                 (A) (A) (A) (A) (A) (A) (A) (A) (A) (A) (A) (A)
                 (A) (A) (A) (A) (A) (A)
       Virtual   (A) (A) (A) (A) (A) (A) (A) (A) (A) (A) (A) (A)
                 (A) (A) (A) (A) (A) (A) (A) (A) (A) (A) (A) (A)
                 (A) (A) (A) (A) (A) (A) (A) (A) (A) (A) (A) (A)
                 (A) (A) (A) (A) (A) (A) (A) (A) (A) (A) (A) (A)
                 (A) (A) (A) (A) (A) (A) (A) (A) (A) (A) (A) (A)
                 (A) (A) (A) (A) (A) (A) (A) (A) (A) (A) (A) (A)
                 (A) (A) (A) (A) (A) (A) (A) (A) (A) (A) (A) (A)
                 (A) (A) (A) (A) (A) (A) (A) (A) (A) (A) (A) (A)
                 (A) (A) (A) (A) (A) (A) (A) (A) (A) (A) (A) (A)
                 (A) (A) (A) (A) (A) (A) (A) (A) (A) (A) (A) (A)
                 (A) (A) (A) (A) (A) (A) (A) (A) (A) (A) (A) (A)
                 (A) (A) (A) (A) (A) (A) (A) (A) (A) (A) (A) (A)
                 (A) (A) (A) (A) (A) (A) (A) (A) (A) (A) (A) (A)
                 (A) (A) (A) (A) (A) (A) (A) (A) (A) (A) (A) (A)
                 (A) (A) (A) (A) (A) (A) (A) (A) (A) (A) (A) (A)
                 (A) (A) (A) (A) (A) (A) (A) (A) (A) (A) (A) (A)
                 (A) (A) (A) (A) (A) (A) (A) (A) (A) (A) (A) (A)
                 (A) (A) (A) (A) (A) (A) (A) (A) (A) (A) (A) (A)
                 (A) (A) (A) (A) (A) (A) (A) (A) (A) (A) (A) (A)
                 (A) (A) (A) (A) (A) (A) (A) (A) (A) (A) (A) (A)
                 (A) (A) (A) (A) (A) (A) (A) (A) (A) (A) (A) (A)
                 (A) (A) (A) (A) (A) (A) (A) (A) (A) (A) (A) (A)
                 (A) (A) (A) (A) (A) (A) (A) (A) (A) (A) (A) (A)
                 (A) (A) (A) (A) (A) (A) (A) (A) (A) (A) (A) (A)
                 (A) (A) (A) (A) (A) (A) (A) (A) (A) (A) (A) (A)
                 (A) (A) (A) (A) (A) (A) (A) (A) (A) (A) (A) (A)
                 (A) (A) (A) (A) (A) (A) (A) (A) (A) (A) (A) (A)
                 (A) (A) (A) (A) (A) (A) (A) (A) (A) (A) (A) (A)
                 (A) (A) (A) (A) (A) (A) (A) (A) (A) (A) (A) (A)
                 (A) (A) (A) (A) (A) (A) (A) (A) (A) (A) (A) (A)
                 (A) (A) (A) (A) (A) (A) (A) (A) (A) (A) (A) (A)
                 (A) (A) (A) (A) (A) (A) (A) (A) (A) (A) (A) (A)
                 (A) (A) (A) (A) (A) (A) (A) (A) (A) (A) (A) (A)
                 (A) (A) (A) (A) (A) (A) (A) (A) (A) (A) (A) (A)
                 (A) (A) (A) (A) (A) (A) (A) (A) (A) (A) (A) (A)
                 (A) (A)
 The electronic state is 1-A.
 Alpha  occ. eigenvalues --  -19.45215 -19.44358 -19.40811 -19.36534 -19.36049
 Alpha  occ. eigenvalues --  -19.33631 -10.57308 -10.51419 -10.46388 -10.44650
 Alpha  occ. eigenvalues --  -10.44503 -10.44279 -10.40730 -10.39558 -10.39081
 Alpha  occ. eigenvalues --  -10.39026 -10.37438  -1.35265  -1.28125  -1.26152
 Alpha  occ. eigenvalues --   -1.22252  -1.20943  -1.18943  -1.01026  -0.97877
 Alpha  occ. eigenvalues --   -0.95012  -0.88937  -0.88002  -0.85563  -0.83011
 Alpha  occ. eigenvalues --   -0.81364  -0.78418  -0.77301  -0.76221  -0.72592
 Alpha  occ. eigenvalues --   -0.71340  -0.68012  -0.67136  -0.66525  -0.66122
 Alpha  occ. eigenvalues --   -0.63790  -0.63460  -0.62700  -0.61817  -0.61281
 Alpha  occ. eigenvalues --   -0.60317  -0.59466  -0.58461  -0.58000  -0.57552
 Alpha  occ. eigenvalues --   -0.57158  -0.56253  -0.55933  -0.54658  -0.54229
 Alpha  occ. eigenvalues --   -0.53793  -0.51679  -0.50710  -0.49585  -0.48473
 Alpha  occ. eigenvalues --   -0.48023  -0.47417  -0.45518  -0.43101  -0.42175
 Alpha  occ. eigenvalues --   -0.40159
 Alpha virt. eigenvalues --   -0.20198  -0.12347  -0.11881  -0.09657  -0.09335
 Alpha virt. eigenvalues --   -0.08477  -0.08229  -0.07393  -0.07165  -0.06629
 Alpha virt. eigenvalues --   -0.06232  -0.05989  -0.05845  -0.05015  -0.04656
 Alpha virt. eigenvalues --   -0.04038  -0.03723  -0.02889  -0.02795  -0.02107
 Alpha virt. eigenvalues --   -0.01819  -0.01495  -0.00944  -0.00765  -0.00209
 Alpha virt. eigenvalues --   -0.00071   0.00032   0.00434   0.01004   0.01145
 Alpha virt. eigenvalues --    0.01366   0.02117   0.02426   0.02782   0.02976
 Alpha virt. eigenvalues --    0.03629   0.04325   0.04706   0.05099   0.05661
 Alpha virt. eigenvalues --    0.05971   0.06307   0.06462   0.06841   0.07045
 Alpha virt. eigenvalues --    0.07611   0.08118   0.08382   0.08590   0.08677
 Alpha virt. eigenvalues --    0.08922   0.09440   0.10225   0.10443   0.10806
 Alpha virt. eigenvalues --    0.11148   0.11362   0.11592   0.11878   0.12215
 Alpha virt. eigenvalues --    0.12499   0.12511   0.13150   0.13596   0.13657
 Alpha virt. eigenvalues --    0.14047   0.14938   0.15311   0.16121   0.16394
 Alpha virt. eigenvalues --    0.16987   0.17436   0.17622   0.18233   0.18414
 Alpha virt. eigenvalues --    0.18952   0.19507   0.20024   0.20295   0.20595
 Alpha virt. eigenvalues --    0.21676   0.22002   0.22242   0.22890   0.23308
 Alpha virt. eigenvalues --    0.23598   0.23726   0.24746   0.25236   0.26375
 Alpha virt. eigenvalues --    0.26936   0.27227   0.27988   0.28168   0.28660
 Alpha virt. eigenvalues --    0.29189   0.29892   0.30132   0.30788   0.31567
 Alpha virt. eigenvalues --    0.31967   0.32375   0.32616   0.33108   0.34507
 Alpha virt. eigenvalues --    0.35133   0.35613   0.36186   0.36656   0.37828
 Alpha virt. eigenvalues --    0.38163   0.39503   0.39837   0.40046   0.42021
 Alpha virt. eigenvalues --    0.43023   0.44458   0.44884   0.45327   0.46189
 Alpha virt. eigenvalues --    0.46922   0.47360   0.47749   0.48117   0.49038
 Alpha virt. eigenvalues --    0.49899   0.50508   0.51181   0.51847   0.52691
 Alpha virt. eigenvalues --    0.54514   0.55033   0.55874   0.55955   0.56322
 Alpha virt. eigenvalues --    0.57127   0.57800   0.58350   0.58701   0.58889
 Alpha virt. eigenvalues --    0.59354   0.60352   0.60559   0.61700   0.62313
 Alpha virt. eigenvalues --    0.62502   0.63110   0.63592   0.63963   0.65077
 Alpha virt. eigenvalues --    0.66235   0.66628   0.67578   0.68434   0.69787
 Alpha virt. eigenvalues --    0.71485   0.72608   0.75562   0.78766   0.80040
 Alpha virt. eigenvalues --    0.80317   0.84333   0.86785   0.87625   0.88032
 Alpha virt. eigenvalues --    0.88565   0.91558   0.93324   0.94539   0.94821
 Alpha virt. eigenvalues --    0.95030   0.97633   0.99482   1.00854   1.01635
 Alpha virt. eigenvalues --    1.03295   1.03939   1.05429   1.06993   1.07679
 Alpha virt. eigenvalues --    1.08376   1.09652   1.11632   1.12055   1.13020
 Alpha virt. eigenvalues --    1.14736   1.16506   1.16714   1.18569   1.19572
 Alpha virt. eigenvalues --    1.21020   1.21879   1.23341   1.23608   1.24243
 Alpha virt. eigenvalues --    1.25161   1.25693   1.27691   1.29602   1.30509
 Alpha virt. eigenvalues --    1.31132   1.31721   1.32542   1.33634   1.34658
 Alpha virt. eigenvalues --    1.34827   1.36318   1.37918   1.39652   1.40553
 Alpha virt. eigenvalues --    1.40997   1.42493   1.43488   1.44633   1.44982
 Alpha virt. eigenvalues --    1.45422   1.45525   1.46376   1.47006   1.47316
 Alpha virt. eigenvalues --    1.47834   1.48116   1.48898   1.50038   1.50491
 Alpha virt. eigenvalues --    1.51517   1.51599   1.53928   1.55014   1.55587
 Alpha virt. eigenvalues --    1.56623   1.56975   1.57325   1.58440   1.58690
 Alpha virt. eigenvalues --    1.59285   1.59891   1.60922   1.62623   1.63299
 Alpha virt. eigenvalues --    1.64538   1.65807   1.66072   1.67656   1.68422
 Alpha virt. eigenvalues --    1.69191   1.70040   1.71409   1.73323   1.74619
 Alpha virt. eigenvalues --    1.76933   1.77421   1.79042   1.80269   1.81296
 Alpha virt. eigenvalues --    1.81572   1.84745   1.85482   1.85669   1.88580
 Alpha virt. eigenvalues --    1.89141   1.90008   1.92055   1.92955   1.94076
 Alpha virt. eigenvalues --    1.95135   1.98007   1.99627   2.01293   2.03036
 Alpha virt. eigenvalues --    2.03337   2.05419   2.06521   2.07278   2.08183
 Alpha virt. eigenvalues --    2.08818   2.10440   2.11429   2.12314   2.14273
 Alpha virt. eigenvalues --    2.15099   2.17344   2.18557   2.20029   2.21458
 Alpha virt. eigenvalues --    2.23134   2.32110   2.33074   2.33223   2.34298
 Alpha virt. eigenvalues --    2.34421   2.37816   2.39001   2.39732   2.40306
 Alpha virt. eigenvalues --    2.40728   2.41423   2.41903   2.43363   2.43625
 Alpha virt. eigenvalues --    2.44175   2.44698   2.45052   2.46169   2.47262
 Alpha virt. eigenvalues --    2.47622   2.48565   2.49252   2.50464   2.53600
 Alpha virt. eigenvalues --    2.55035   2.55943   2.58018   2.60894   2.62755
 Alpha virt. eigenvalues --    2.63542   2.67878   2.69247   2.69969   2.70384
 Alpha virt. eigenvalues --    2.71953   2.73187   2.74292   2.76426   2.77181
 Alpha virt. eigenvalues --    2.79324   2.80550   2.82692   2.84299   2.85694
 Alpha virt. eigenvalues --    2.87668   2.89514   2.91704   2.92537   2.93769
 Alpha virt. eigenvalues --    2.94538   2.95257   2.97277   2.97872   2.98552
 Alpha virt. eigenvalues --    3.00404   3.01662   3.04633   3.05224   3.06663
 Alpha virt. eigenvalues --    3.07628   3.07912   3.09127   3.11137   3.12058
 Alpha virt. eigenvalues --    3.13059   3.15077   3.16832   3.19241   3.21272
 Alpha virt. eigenvalues --    3.23926   3.28066   3.30985   3.35554   3.39478
 Alpha virt. eigenvalues --    3.48561   3.62038   3.65842   3.67889   3.68359
 Alpha virt. eigenvalues --    3.68800   3.69008   3.69761   3.70690   3.72211
 Alpha virt. eigenvalues --    3.74273   3.77192   3.81467   3.86744   3.90661
 Alpha virt. eigenvalues --    3.93069   3.94597   3.94909   3.95821   4.00791
 Alpha virt. eigenvalues --    4.03566   4.06819   4.08694   4.09196   4.12752
 Alpha virt. eigenvalues --    4.19329   4.24670   4.95385   4.97968   5.02587
 Alpha virt. eigenvalues --    5.04730   5.05420   5.07094   5.13064   5.21509
 Alpha virt. eigenvalues --    5.26938   5.31292   5.31582   5.33817   5.47242
 Alpha virt. eigenvalues --    5.56463   5.58346   5.61358   5.64093   5.81244
 Alpha virt. eigenvalues --   23.68496  23.72045  23.75867  23.77216  23.80873
 Alpha virt. eigenvalues --   23.83358  23.88513  23.89072  23.89447  23.90439
 Alpha virt. eigenvalues --   23.90828  49.89006  49.89986  49.93715  49.95201
 Alpha virt. eigenvalues --   49.97599  50.01278
          Condensed to atoms (all electrons):
               1          2          3          4          5          6
     1  C   11.774075  -4.409116   0.349606  -1.437350  -0.315808   0.252654
     2  C   -4.409116  16.486832  -4.429477   0.465530   0.958921  -2.213642
     3  C    0.349606  -4.429477  17.520369 -12.974058   7.351391  -3.724949
     4  C   -1.437350   0.465530 -12.974058  31.993363 -18.398427   8.054945
     5  C   -0.315808   0.958921   7.351391 -18.398427  27.159897 -11.885934
     6  C    0.252654  -2.213642  -3.724949   8.054945 -11.885934  16.175385
     7  O   -0.262324  -0.020787  -0.021693   0.226267  -0.238919   0.436873
     8  O    0.010326   0.106909   0.147466  -0.473412   0.283706  -0.076421
     9  O    0.032927  -0.182631   0.037476   0.051153  -0.284973   0.386268
    10  O    0.131941  -0.079178   0.014909   0.074385  -0.031921   0.033165
    11  H    0.419606  -0.113670   0.044285  -0.006377   0.008471  -0.001896
    12  H    0.269268   0.088780  -0.047178   0.034015  -0.022536   0.020292
    13  H   -0.014864   0.264966   0.010250   0.033186  -0.036243   0.030906
    14  H    0.022408  -0.130015   0.417028   0.069120  -0.047686   0.009945
    15  H    0.012345  -0.019121   0.105214   0.070897   0.142026  -0.003395
    16  H    0.012036  -0.008822  -0.000880   0.110526   0.152615   0.071569
    17  H   -0.007599  -0.019896   0.029876  -0.022043   0.086996   0.294360
    18  O    0.055186   0.029422   0.013406  -0.096878   0.051946   0.045813
    19  C   -0.319777   0.166170  -0.032691   0.023427  -0.002096  -0.007894
    20  H    0.025389  -0.001302  -0.006191  -0.000234  -0.000371   0.000346
    21  H    0.011353  -0.019678   0.000422  -0.001712   0.000478   0.000528
    22  H   -0.056524   0.048274   0.000339   0.012552  -0.001860   0.001289
    23  C   -0.004118  -0.022924   0.041028  -0.239775  -0.004497   0.024398
    24  H   -0.000927   0.002246   0.007241  -0.041340   0.017370   0.000537
    25  H    0.000448  -0.002360  -0.003689   0.064663  -0.074864   0.013503
    26  H    0.000757   0.001400  -0.002540  -0.004074   0.037079  -0.000617
    27  C   -0.001070  -0.173306   0.023322  -0.054144  -0.135757   0.078066
    28  H    0.003301   0.003998   0.050615  -0.028981  -0.046377   0.002822
    29  H   -0.000331  -0.001206  -0.002543  -0.051763   0.059277  -0.002255
    30  H   -0.000061   0.000500   0.003987   0.029243   0.000123  -0.002066
    31  C    0.019944   0.047599   0.427715  -0.936031   1.005053  -1.126006
    32  O    0.008185   0.271566  -0.065900  -0.187004  -0.050858   0.217172
    33  C   -0.059523  -0.367999   0.547008   0.107162   0.240544  -0.677197
    34  H    0.000105  -0.001082  -0.011843   0.011237  -0.008708   0.000790
    35  H    0.003476  -0.005137   0.002434   0.001322  -0.004487   0.004209
    36  H   -0.000096   0.000183   0.000134  -0.004316   0.008068  -0.003614
               7          8          9         10         11         12
     1  C   -0.262324   0.010326   0.032927   0.131941   0.419606   0.269268
     2  C   -0.020787   0.106909  -0.182631  -0.079178  -0.113670   0.088780
     3  C   -0.021693   0.147466   0.037476   0.014909   0.044285  -0.047178
     4  C    0.226267  -0.473412   0.051153   0.074385  -0.006377   0.034015
     5  C   -0.238919   0.283706  -0.284973  -0.031921   0.008471  -0.022536
     6  C    0.436873  -0.076421   0.386268   0.033165  -0.001896   0.020292
     7  O    7.858066  -0.006799   0.054406   0.020043   0.004285   0.010196
     8  O   -0.006799   7.977879   0.080959  -0.000929   0.000034  -0.000242
     9  O    0.054406   0.080959   7.927727   0.003755  -0.001988   0.017955
    10  O    0.020043  -0.000929   0.003755   7.945337  -0.029136  -0.052739
    11  H    0.004285   0.000034  -0.001988  -0.029136   0.478724  -0.024359
    12  H    0.010196  -0.000242   0.017955  -0.052739  -0.024359   0.477618
    13  H   -0.012850  -0.003135   0.011566  -0.002679  -0.008269   0.004226
    14  H    0.007184  -0.013460  -0.054679   0.014777   0.000289  -0.000467
    15  H    0.000369  -0.006857   0.011614  -0.000178  -0.000000  -0.000022
    16  H    0.006826   0.008293   0.005275   0.000031  -0.000004   0.000015
    17  H   -0.063545  -0.001932  -0.006215   0.000037   0.000021  -0.000059
    18  O    0.014518   0.016162   0.002279  -0.000203  -0.000030  -0.000036
    19  C   -0.007512  -0.000779  -0.002373   0.136720  -0.000197   0.000622
    20  H    0.000148  -0.000000   0.000011  -0.053487  -0.000265  -0.000143
    21  H    0.000622   0.000003   0.000019  -0.034524   0.007292   0.001228
    22  H   -0.001819  -0.000022  -0.000023  -0.049425  -0.001614  -0.000959
    23  C   -0.000349   0.003289   0.001430  -0.000136  -0.000128  -0.000097
    24  H    0.000040   0.000020  -0.000130   0.000002   0.000005   0.000000
    25  H    0.000369   0.000126   0.000049   0.000001   0.000000   0.000000
    26  H   -0.000407   0.000113   0.000012  -0.000001  -0.000001  -0.000000
    27  C    0.003239   0.120893   0.009672   0.001271   0.000062  -0.000115
    28  H    0.000066  -0.044564  -0.002380   0.000093   0.000001   0.000024
    29  H   -0.000021  -0.029254   0.000630  -0.000022  -0.000000  -0.000001
    30  H    0.000014  -0.061420  -0.000641   0.000002   0.000000   0.000000
    31  C   -0.024087   0.064137   0.341504  -0.006623   0.000689   0.005801
    32  O   -0.086052   0.030036  -0.088536  -0.001222   0.000268  -0.002110
    33  C   -0.003611  -0.174772  -0.557465  -0.001580  -0.000498  -0.007365
    34  H    0.000215  -0.001119  -0.001009   0.000007   0.000000  -0.000005
    35  H    0.000026   0.000226  -0.010732   0.000023  -0.000001   0.000023
    36  H   -0.000351   0.000298   0.014959  -0.000003  -0.000001  -0.000030
              13         14         15         16         17         18
     1  C   -0.014864   0.022408   0.012345   0.012036  -0.007599   0.055186
     2  C    0.264966  -0.130015  -0.019121  -0.008822  -0.019896   0.029422
     3  C    0.010250   0.417028   0.105214  -0.000880   0.029876   0.013406
     4  C    0.033186   0.069120   0.070897   0.110526  -0.022043  -0.096878
     5  C   -0.036243  -0.047686   0.142026   0.152615   0.086996   0.051946
     6  C    0.030906   0.009945  -0.003395   0.071569   0.294360   0.045813
     7  O   -0.012850   0.007184   0.000369   0.006826  -0.063545   0.014518
     8  O   -0.003135  -0.013460  -0.006857   0.008293  -0.001932   0.016162
     9  O    0.011566  -0.054679   0.011614   0.005275  -0.006215   0.002279
    10  O   -0.002679   0.014777  -0.000178   0.000031   0.000037  -0.000203
    11  H   -0.008269   0.000289  -0.000000  -0.000004   0.000021  -0.000030
    12  H    0.004226  -0.000467  -0.000022   0.000015  -0.000059  -0.000036
    13  H    0.439144   0.000529   0.001033  -0.000186   0.000256  -0.004971
    14  H    0.000529   0.390801  -0.007076   0.000065   0.000058  -0.000758
    15  H    0.001033  -0.007076   0.443874   0.000287  -0.000230   0.003023
    16  H   -0.000186   0.000065   0.000287   0.446663  -0.006853  -0.020650
    17  H    0.000256   0.000058  -0.000230  -0.006853   0.438567  -0.008565
    18  O   -0.004971  -0.000758   0.003023  -0.020650  -0.008565   7.891615
    19  C    0.000507  -0.003273  -0.000545  -0.000045  -0.000039   0.000015
    20  H   -0.000165   0.000033   0.000001  -0.000000  -0.000000   0.000002
    21  H   -0.000378  -0.000025   0.000005  -0.000000   0.000000   0.000005
    22  H    0.003531   0.000361  -0.000082   0.000000  -0.000003  -0.000028
    23  C   -0.002803  -0.000789   0.006339  -0.008228  -0.007284   0.133321
    24  H    0.000119  -0.000000   0.000010  -0.003781   0.001230  -0.042634
    25  H    0.000008  -0.000001   0.000003   0.013441  -0.000581  -0.030533
    26  H   -0.000106  -0.000000  -0.000117   0.000143  -0.000255  -0.057917
    27  C    0.001573   0.002842  -0.004731   0.000308  -0.000593   0.002409
    28  H   -0.000016   0.000979  -0.003622   0.000143   0.000003   0.000099
    29  H    0.000019  -0.000357   0.013167  -0.000029  -0.000003  -0.000073
    30  H    0.000002  -0.000198  -0.000032  -0.000145  -0.000000   0.000093
    31  C    0.014547   0.028937  -0.010152  -0.024205   0.053759  -0.030102
    32  O   -0.006094  -0.004372   0.001623   0.016336  -0.071249   0.021473
    33  C    0.005380   0.016508  -0.008383  -0.025195   0.031142  -0.007820
    34  H    0.000001   0.000036  -0.000006   0.000095   0.000002   0.000006
    35  H    0.000009   0.000020   0.000003   0.000002   0.000021  -0.000002
    36  H   -0.000004   0.000005   0.000001  -0.000001  -0.000021   0.000002
              19         20         21         22         23         24
     1  C   -0.319777   0.025389   0.011353  -0.056524  -0.004118  -0.000927
     2  C    0.166170  -0.001302  -0.019678   0.048274  -0.022924   0.002246
     3  C   -0.032691  -0.006191   0.000422   0.000339   0.041028   0.007241
     4  C    0.023427  -0.000234  -0.001712   0.012552  -0.239775  -0.041340
     5  C   -0.002096  -0.000371   0.000478  -0.001860  -0.004497   0.017370
     6  C   -0.007894   0.000346   0.000528   0.001289   0.024398   0.000537
     7  O   -0.007512   0.000148   0.000622  -0.001819  -0.000349   0.000040
     8  O   -0.000779  -0.000000   0.000003  -0.000022   0.003289   0.000020
     9  O   -0.002373   0.000011   0.000019  -0.000023   0.001430  -0.000130
    10  O    0.136720  -0.053487  -0.034524  -0.049425  -0.000136   0.000002
    11  H   -0.000197  -0.000265   0.007292  -0.001614  -0.000128   0.000005
    12  H    0.000622  -0.000143   0.001228  -0.000959  -0.000097   0.000000
    13  H    0.000507  -0.000165  -0.000378   0.003531  -0.002803   0.000119
    14  H   -0.003273   0.000033  -0.000025   0.000361  -0.000789  -0.000000
    15  H   -0.000545   0.000001   0.000005  -0.000082   0.006339   0.000010
    16  H   -0.000045  -0.000000  -0.000000   0.000000  -0.008228  -0.003781
    17  H   -0.000039  -0.000000   0.000000  -0.000003  -0.007284   0.001230
[...]
 000424,0.00004673,-0.00005587,-0.00007760,-0.00003801,0.00001517,-0.00
 005609,-0.00002364,0.00108027,-0.00138988,-0.00154152,-0.00011067,-0.0
 0042347,0.00027519,-0.00001615,0.00001804,0.00020247,-0.00012553,0.000
 13871,0.00001563,-0.00105525,0.00165118,0.00066520,0.00041885,-0.00037
 792,-0.00051008,0.00022292,-0.00028711,-0.00044153,0.00008653,-0.00010
 168,-0.00006257,-0.15880143,0.10023576,0.11105212,0.23708583,0.0018173
 6,-0.00133205,0.00127732,0.00704177,-0.00169971,-0.01677990,-0.0040888
 4,-0.01364927,0.00903218,0.00100599,0.00096678,-0.00545894,-0.00436450
 ,-0.03547871,-0.00865149,0.03544984,-0.02081749,0.01197401,-0.06420629
 ,-0.02918584,0.01066945,0.00065626,0.00334829,0.00171092,0.02327685,0.
 03267202,-0.03426070,-0.00165452,0.00056543,0.00146570,0.00072735,0.00
 031865,-0.00001241,-0.00046559,0.00005258,-0.00047979,-0.00019653,0.00
 092622,0.00389650,-0.00053633,0.00244392,-0.00029718,-0.00153434,0.000
 59300,0.00010717,0.00029847,0.00012417,0.00031137,-0.00074382,-0.03325
 467,0.00403525,0.00555932,-0.00677434,0.00879696,0.00020959,0.00020657
 ,0.00007790,-0.00009817,-0.00003976,0.00006688,0.00000500,-0.00001212,
 -0.00003762,0.00000271,0.00016081,-0.00014339,-0.00218607,0.00257323,0
 .00307800,-0.00011296,0.00097813,-0.00019610,0.00032890,-0.00006995,-0
 .00030251,0.00020816,-0.00029553,-0.00009599,0.00127369,-0.00051044,-0
 .00068924,-0.00065310,0.00004672,0.00047036,-0.00032931,0.00025375,-0.
 00002457,0.00015031,0.00003987,0.00031709,0.08982498,-0.28884484,-0.10
 665934,-0.11278643,0.43857605,0.00021096,-0.00049551,0.00070989,0.0016
 4553,0.00048365,-0.00785831,-0.00521632,-0.01255272,0.00788340,0.00173
 910,0.00021137,0.00040020,-0.00040765,0.02280614,-0.00185604,0.0232365
 8,0.02282841,-0.07004320,-0.01116059,-0.00076559,0.01151889,-0.0004688
 5,0.00002408,-0.00385281,0.06010672,-0.02372666,-0.04501814,-0.0002428
 9,0.00048933,0.00050514,0.00037577,0.00030131,-0.00007411,-0.00031018,
 0.00004998,-0.00047855,0.00000087,0.00041672,0.00155479,-0.00047982,0.
 00104498,0.00002203,-0.00102306,0.00054595,0.00108242,-0.00058845,-0.0
 0036713,0.00022179,-0.00079888,-0.03020245,0.00531451,-0.00256974,0.00
 319702,-0.00095501,-0.00019238,-0.00017883,0.00011130,-0.00002800,-0.0
 0001740,-0.00000254,0.00005391,0.00003908,0.00002169,0.00001055,0.0000
 5612,-0.00004909,0.00019020,-0.00095451,-0.00201493,0.00025711,0.00031
 792,0.00076907,-0.00017426,0.00018623,0.00008765,-0.00011539,0.0001761
 5,0.00054280,0.00028734,0.00124338,0.00009374,-0.00018145,0.00004687,0
 .00027035,-0.00018487,-0.00013401,-0.00045687,-0.00004603,0.00000170,0
 .00001110,0.11356142,-0.12668736,-0.20075764,-0.17969303,0.14991542,0.
 29703657,0.00016406,0.00007869,-0.00024048,-0.00026588,0.00063385,0.00
 136773,0.00216493,0.00525984,0.00140785,-0.00096363,-0.00163061,0.0008
 6817,-0.00041297,-0.00046854,0.00029581,0.00064455,-0.00256340,0.00554
 835,0.00329594,0.00138576,-0.00143199,0.00027348,0.00056370,0.00007772
 ,-0.00386014,-0.02970354,0.01907681,-0.00021332,-0.00017608,0.00007322
 ,-0.00010899,-0.00002269,0.00001080,0.00007235,-0.00003346,0.00003205,
 -0.00007042,-0.00009586,-0.00027736,0.00023760,-0.00113030,0.00031908,
 0.00064947,-0.00000209,-0.00015971,-0.00001674,-0.00001311,-0.00018063
 ,-0.00006985,0.00137885,-0.00027750,0.00016110,-0.00053503,0.00005968,
 0.00011614,0.00014630,-0.00004518,-0.00000444,-0.00000733,0.00001402,-
 0.00002070,-0.00002241,-0.00001531,-0.00000555,-0.00000575,0.00000329,
 -0.00015108,0.00021905,0.00018873,-0.00000365,-0.00003474,-0.00009017,
 0.00002622,-0.00001178,-0.00001377,0.00001300,-0.00001992,-0.00003659,
 0.00002464,-0.00006429,-0.00038919,-0.00005765,-0.00004142,-0.00002033
 ,-0.00003934,-0.00001425,-0.00000453,0.00002509,0.00000452,0.00002827,
 -0.08587221,-0.01017901,-0.00114569,0.01323350,0.02359738,0.00070497,0
 .55785033,0.00030003,-0.00000737,-0.00011616,0.00030922,-0.00001675,-0
 .00082865,0.00198965,0.00437594,-0.00199740,-0.00047546,-0.00117638,0.
 00008076,-0.00047674,-0.00023999,-0.00041530,0.00281815,0.00835232,-0.
 00023678,-0.00233536,-0.00080388,0.00056967,-0.00014622,0.00058330,0.0
 0055903,-0.01206621,-0.01352078,0.01478159,-0.00034730,-0.00012947,0.0
 0021726,-0.00002444,-0.00002263,0.00001944,0.00005452,0.00000750,0.000
 06398,-0.00005837,-0.00004375,0.00012905,0.00007779,0.00008541,-0.0000
 1282,0.00024866,-0.00011104,-0.00005287,-0.00002256,0.00000164,-0.0000
 1521,0.00001521,-0.00051117,0.00017295,0.00035017,-0.00082568,0.000261
 91,0.00013453,0.00017681,-0.00004519,-0.00001256,-0.00001081,0.0000218
 1,-0.00001884,-0.00002419,-0.00001967,-0.00000333,-0.00000249,-0.00001
 105,-0.00027506,0.00026150,0.00023135,0.00002938,0.00002907,-0.0000267
 7,0.00003655,0.00000697,-0.00002806,0.00001130,-0.00003426,-0.00000121
 ,0.00000259,-0.00025290,-0.00045700,-0.00007207,-0.00002556,0.00003276
 ,-0.00000067,0.00003956,0.00007678,0.00008590,-0.00001137,0.00006582,-
 0.01903782,-0.22670292,0.03149416,0.00546908,-0.04440763,-0.00945471,-
 0.03526891,0.51930311,-0.00020493,0.00013227,-0.00012154,0.00036001,0.
 00198485,-0.00247500,0.00645302,-0.00054062,0.00443307,0.00032837,-0.0
 0122880,0.00027779,-0.00069065,-0.00095283,-0.00105815,0.00588831,0.00
 419545,0.00097438,-0.00232865,-0.00031830,0.00067276,-0.00036596,0.000
 53263,0.00016450,0.01502756,0.03601569,-0.01191217,0.00002347,0.000009
 30,0.00015955,0.00008095,0.00000490,0.00001081,0.00001489,-0.00007561,
 -0.00003482,0.00029782,0.00032680,0.00070795,0.00007728,0.00039603,-0.
 00006255,0.00012218,0.00003459,-0.00002859,-0.00005666,0.00006349,0.00
 000859,-0.00002343,-0.00066021,0.00012851,0.00024632,-0.00087772,0.000
 72146,-0.00002264,0.00000736,0.00001988,-0.00000395,-0.00000986,0.0000
 0259,0.00001388,0.00000695,0.00000214,0.00000772,-0.00001305,-0.000007
 08,-0.00020176,0.00020886,0.00018057,0.00001749,0.00006078,-0.00002733
 ,0.00001482,0.00000102,-0.00001982,0.00001648,-0.00001905,0.00000093,0
 .00018003,-0.00015206,0.00000850,-0.00008885,-0.00003407,0.00013307,-0
 .00004102,0.00004544,0.00001207,0.00004650,0.00000651,0.00003443,-0.00
 024568,0.03691500,-0.08647155,0.00417117,-0.03292341,0.00218686,-0.039
 21949,0.00179744,0.59691788,-0.00007972,0.00002641,-0.00000804,-0.0000
 7704,0.00008009,0.00006140,0.00016373,-0.00039000,0.00038749,-0.000031
 38,-0.00003074,0.00006573,0.00021610,0.00000419,0.00008773,-0.00046064
 ,-0.00102266,-0.00018855,0.00025224,0.00018482,-0.00006618,-0.00012720
 ,0.00019052,-0.00021186,0.00125382,-0.00021145,-0.00039070,0.00007950,
 0.00003524,-0.00003064,0.00000948,0.00000036,0.00000037,-0.00000796,0.
 00000947,-0.00001061,0.00002424,0.00002354,0.00001146,-0.00001894,-0.0
 0002781,-0.00000028,-0.00000734,0.00004040,0.00000543,0.00000289,0.000
 01808,-0.00000147,0.00000788,0.00003854,-0.00002040,-0.00011219,0.0002
 1695,-0.00004127,-0.00003335,-0.00004353,0.00001023,0.00000140,0.00000
 027,-0.00000399,0.00000595,0.00000623,0.00000546,0.00000067,-0.0000006
 0,0.00000191,0.00008447,-0.00006569,-0.00006469,-0.00000541,-0.0000034
 7,0.00000765,-0.00001305,-0.00000090,0.00000571,-0.00000482,0.00000851
 ,0.00000240,0.00021537,0.00001973,0.00012219,-0.00010617,-0.00006167,0
 .00009476,-0.00006367,0.00002392,-0.00001616,0.00002191,-0.00001625,-0
 .00005458,-0.00632778,-0.00561904,-0.00131408,-0.00126696,0.00312838,0
 .00130294,-0.21595495,-0.06049111,-0.11616217,0.23479421,-0.00000744,-
 0.00000200,0.00001404,0.00008475,0.00029717,-0.00006913,0.00078165,0.0
 0044460,0.00093491,-0.00058440,-0.00093046,-0.00009268,-0.00032290,-0.
 00038415,-0.00023190,0.00130801,-0.00014518,0.00119600,0.00020340,0.00
 024863,-0.00010282,0.00017331,0.00094439,-0.00049530,0.00189683,-0.001
 12681,0.00099882,-0.00000010,0.00000539,-0.00000684,0.00000055,0.00000
 376,-0.00000184,0.00000339,-0.00001548,-0.00000476,0.00000134,0.000002
 03,0.00001886,0.00006238,-0.00020776,0.00008717,0.00023650,0.00010011,
 -0.00004745,0.00003630,-0.00003008,-0.00003948,-0.00001751,0.00008098,
 -0.00001903,0.00012481,-0.00015331,0.00023919,-0.00000670,-0.00000519,
 0.00000450,-0.00000045,-0.00000043,-0.00000096,0.00000047,-0.00000033,
 0.00000081,0.00000066,0.00000078,-0.00000063,-0.00004521,0.00004347,0.
 00001508,-0.00000012,0.00000742,-0.00001027,0.00000840,-0.00000817,-0.
 00000296,0.00000494,0.00000072,-0.00000269,-0.00000787,0.00013208,0.00
 049979,-0.00000125,-0.00004634,0.00003124,0.00001426,0.00003444,-0.000
 08357,0.00003927,0.00001653,0.00008593,-0.03137810,-0.01116026,-0.0202
 7688,0.00210610,-0.00154125,0.00110723,-0.06348860,-0.06325896,-0.0391
 6388,0.06923253,0.06957261,-0.00006329,-0.00002410,0.00006433,-0.00004
 307,-0.00012117,0.00007427,-0.00092759,-0.00091148,-0.00040733,0.00053
 577,0.00070234,-0.00004493,-0.00004452,-0.00006607,-0.00003073,0.00002
 505,-0.00062168,0.00002472,0.00015470,0.00016867,-0.00003779,-0.000098
 28,-0.00056596,-0.00036069,0.00074777,0.00215750,-0.00246434,0.0000776
 2,0.00003520,-0.00005785,0.00001193,0.00001100,-0.00000887,-0.00003126
 ,0.00000931,-0.00001966,0.00000973,0.00000708,0.00000220,-0.00002546,0
 .00017701,-0.00005351,-0.00020535,0.00003336,0.00004985,0.00000565,0.0
 0000084,0.00003148,-0.00002587,0.00000670,-0.00002028,-0.00001782,0.00
 007953,-0.00002500,-0.00002965,-0.00004056,0.00001241,0.00000493,0.000
 00397,-0.00000510,0.00000399,0.00000688,0.00000253,0.00000130,0.000001
 53,0.00000292,0.00001845,-0.00002859,-0.00000784,-0.00000601,-0.000001
 86,0.00000031,-0.00000072,-0.00000278,0.00000766,0.00000339,0.00000321
 ,-0.00000297,-0.00001816,0.00028238,0.00028566,0.00017657,0.00006332,-
 0.00009960,0.00001179,-0.00014061,-0.00006819,-0.00019518,0.00003935,-
 0.00013043,0.00652560,-0.00185221,0.00237945,-0.00050120,0.00021230,0.
 00093141,-0.11519939,-0.03670646,-0.11165223,0.12496344,0.04269396,0.1
 2058628,0.00006203,-0.00009955,0.00006406,0.00004648,-0.00001894,-0.00
 004264,0.00030054,0.00015972,-0.00022064,-0.00006543,-0.00007667,0.000
 00136,-0.00008316,-0.00000474,-0.00009970,0.00044912,-0.00006101,-0.00
 022206,-0.00031187,0.00004411,0.00008620,0.00002641,0.00001922,-0.0001
 1263,-0.00012004,-0.00108643,0.00011348,-0.00003231,0.00004490,-0.0000
 2218,-0.00000997,0.00001401,-0.00000663,0.00000097,0.00000902,-0.00002
 654,-0.00003207,-0.00001215,-0.00000548,0.00001962,0.00004614,0.000007
 79,0.00002878,0.00000674,0.00001108,0.00000835,-0.00001680,0.00000842,
 -0.00000685,-0.00013026,0.00001053,0.00004104,-0.00007612,0.00003532,-
 0.00000602,-0.00002253,0.00000883,0.00000245,-0.00000008,-0.00000038,-
 0.00000101,-0.00000107,-0.00000181,-0.00000248,0.00001277,-0.00000056,
 -0.00002625,0.00001750,0.00001934,0.00000296,0.00000515,-0.00000091,0.
 00000257,-0.00000030,-0.00000137,0.00000257,-0.00000228,0.00000163,-0.
 00008653,0.00007495,0.00013365,0.00007646,0.00002704,-0.00004901,0.000
 02932,-0.00004062,-0.00002476,-0.00003547,0.00001426,0.00000104,0.0048
 5187,-0.00510877,-0.00282483,0.00003851,-0.00297806,-0.00033742,-0.219
 23557,0.12246131,0.07517220,-0.01770672,0.01403183,0.00905552,0.233824
 63,0.00003274,-0.00014557,0.00015143,0.00014458,0.00001358,-0.00058706
 ,-0.00033662,-0.00069362,0.00031333,0.00016707,0.00015656,-0.00023478,
 -0.00013313,-0.00010855,-0.00027613,0.00131685,0.00193594,-0.00079506,
 -0.00127026,-0.00032827,0.00041934,-0.00008291,0.00005942,0.00003007,-
 0.00066268,0.00236675,-0.00167885,0.00004694,0.00011335,-0.00004176,0.
 00002204,0.00004062,-0.00001569,-0.00006034,-0.00000006,-0.00004894,0.
 00002268,0.00005424,0.00012137,-0.00001897,0.00013436,-0.00000899,-0.0
 0010998,0.00001600,0.00001555,-0.00000614,0.00000007,0.00003760,-0.000
 00258,-0.00043550,0.00010274,0.00005385,-0.00011174,0.00015313,-0.0000
 4977,-0.00007128,0.00001952,0.00000212,0.00000363,-0.00000618,0.000006
 27,0.00000892,0.00000519,0.00000172,0.00001481,-0.00000199,-0.00002830
 ,0.00000735,0.00000520,0.00000560,0.00001746,0.00001165,0.00000089,0.0
 0000095,-0.00000095,0.00000329,-0.00000091,0.00000610,0.00004559,-0.00
 003210,0.00002444,-0.00000805,0.00002189,0.00003492,-0.00000692,0.0000
 2158,0.00000631,-0.00001335,0.00000790,0.00001641,0.02886403,-0.016575
 96,-0.01114105,-0.00154283,-0.00862575,0.00063070,0.11567607,-0.125459
 41,-0.04320255,-0.00807625,0.00580331,0.00390807,-0.12729094,0.1380303
 4,-0.00005273,-0.00007037,0.00011361,0.00000898,-0.00001511,0.00015388
 ,-0.00059609,-0.00037521,0.00009916,0.00013742,0.00022546,-0.00005757,
 0.00002679,-0.00017807,-0.00003939,0.00023712,-0.00060882,0.00081650,0
 .00021186,0.00018606,-0.00016717,0.00001989,-0.00011454,-0.00034261,0.
 00139968,0.00141428,-0.00129780,0.00005422,0.00002040,-0.00009961,0.00
 000201,-0.00000059,-0.00001080,-0.00002137,0.00001574,0.00001349,-0.00
 000444,-0.00000827,-0.00003408,-0.00000206,0.00000384,-0.00000516,-0.0
 0006217,0.00004855,0.00002031,0.00001526,0.00000069,-0.00000067,0.0000
 0173,0.00017363,-0.00004653,-0.00001641,0.00005642,0.00001916,-0.00001
 752,-0.00002946,0.00000017,0.00000582,0.00000735,-0.00000578,-0.000001
 62,0.00000035,0.00000165,0.00000055,-0.00000019,0.00000319,0.00003420,
 -0.00001923,-0.00000114,-0.00000732,0.00000254,-0.00000543,-0.00000511
 ,-0.00000261,0.00000107,-0.00000114,0.00000290,-0.00000217,-0.00011550
 ,0.00018096,0.00029640,0.00007927,0.00003052,-0.00006152,0.00003931,-0
 .00004380,-0.00004728,-0.00003276,-0.00000064,-0.00001573,-0.00831885,
 -0.00128991,-0.00050761,0.00031847,0.00179208,0.00153576,0.07715165,-0
 .04536984,-0.07713842,-0.01258735,0.01005310,0.00474414,-0.07983458,0.
 05090863,0.07685641,-0.00001160,-0.00006248,0.00007497,-0.00000170,-0.
 00010973,0.00015389,-0.00013890,-0.00003736,0.00004275,-0.00005887,-0.
 00005397,0.00000143,0.00017182,0.00005804,0.00004604,-0.00030600,-0.00
 049458,-0.00024646,0.00002661,0.00005779,-0.00006377,-0.00000295,0.000
 16213,-0.00015258,0.00152222,-0.00224260,0.00090105,0.00002942,0.00004
 097,-0.00007550,-0.00000517,-0.00000479,-0.00000437,-0.00001619,0.0000
 3759,0.00001290,-0.00002525,-0.00000725,-0.00004655,-0.00001015,-0.000
 06023,0.00002191,0.00002447,0.00002531,0.00000482,-0.00000282,0.000006
 29,-0.00001618,0.00003427,0.00000904,0.00000567,-0.00008599,0.00015361
 ,-0.00004570,-0.00001544,-0.00003441,0.00000294,0.00000357,0.00000410,
 -0.00000415,-0.00000158,0.00000065,0.00000227,-0.00000148,0.00000480,0
 .00000216,0.00006483,-0.00004938,-0.00003817,-0.00000158,0.00000045,0.
 00000607,-0.00001277,0.00000135,-0.00000018,-0.00000496,0.00000455,0.0
 0000377,-0.00000659,0.00002548,0.00014404,-0.00001882,-0.00001882,0.00
 000918,0.00000230,0.00001573,-0.00001509,0.00003052,-0.00001032,0.0000
 0980,-0.00543610,-0.00424971,0.00516481,-0.00054090,0.00237255,0.00053
 529,-0.05162531,-0.00326103,0.05109535,0.00527143,0.00550899,-0.024900
 37,-0.00205296,-0.00671232,0.02193280,0.05320261,0.00008631,-0.0000471
 5,0.00001470,-0.00008981,-0.00040928,0.00071659,-0.00124111,0.00048691
 ,-0.00075315,-0.00029947,0.00008109,-0.00003880,0.00004753,0.00019179,
 0.00018345,-0.00076662,-0.00089495,-0.00029231,0.00051509,0.00019296,-
 0.00029232,0.00015558,0.00004654,0.00004922,-0.00196348,-0.00711702,0.
 00280813,-0.00002982,-0.00000063,-0.00003872,-0.00003521,-0.00000492,-
 0.00000010,0.00000312,0.00002279,0.00001459,-0.00008383,-0.00007917,-0
 .00019654,-0.00000625,-0.00025309,0.00006097,0.00006417,-0.00001162,-0
 .00001128,0.00002054,-0.00001646,-0.00001438,0.00002056,-0.00001743,-0
 .00001046,-0.00000942,0.00011064,-0.00012868,0.00001016,0.00000300,-0.
 00000643,-0.00000032,0.00000102,-0.00000017,-0.00000572,-0.00000324,-0
 .00000063,-0.00000262,0.00000612,0.00000184,0.00001210,-0.00000802,-0.
 00000966,-0.00000487,-0.00001532,-0.00000471,0.00000328,-0.00000376,0.
 00000374,0.00000022,0.00000227,-0.00000413,0.00000143,-0.00005086,-0.0
 0012743,-0.00003364,-0.00003393,0.00001490,-0.00000938,0.00002838,0.00
 001650,0.00003922,-0.00001097,0.00002470,-0.00392702,-0.00271362,0.034
 53351,-0.00079102,0.00169317,-0.00058283,-0.00341092,-0.05562373,0.037
 42663,0.00277302,0.00127775,-0.00951999,0.00003864,0.00375972,-0.01699
 685,0.00891956,0.05941102,0.00002462,0.00000694,-0.00000356,0.00005785
 ,0.00005255,-0.00012605,-0.00006855,-0.00031197,0.00027225,-0.00002327
 ,-0.00007004,-0.00006876,-0.00008057,-0.00008863,-0.00015635,0.0004917
 3,0.00079308,0.00042729,-0.00029826,-0.00010825,0.00002776,0.00001096,
 0.00012118,0.00006646,-0.00095171,0.00028749,0.00055578,-0.00003602,-0
 .00000965,0.00002547,0.00000173,-0.00000433,0.00000268,0.00000466,-0.0
 0000325,0.00000118,0.00000640,-0.00001380,0.00003349,0.00000067,0.0000
 0229,0.00000063,0.00000352,0.00000779,0.00000586,-0.00000801,0.0000098
 0,-0.00000022,0.00000671,-0.00001774,0.00002016,0.00004091,-0.00014766
 ,0.00008505,0.00001297,0.00001558,-0.00000094,-0.00000169,-0.00000142,
 0.00000185,-0.00000178,-0.00000160,-0.00000171,0.00000031,0.00000016,-
 0.00000144,-0.00003100,0.00003956,0.00004519,0.00000126,0.00000613,-0.
 00000439,0.00000385,0.00000069,-0.00000466,0.00000259,-0.00000490,-0.0
 0000158,0.00001732,-0.00004810,-0.00003707,-0.00002755,-0.00001538,0.0
 0002963,-0.00000956,0.00001816,0.00001068,0.00002330,-0.00000199,0.000
 01117,0.00075574,-0.00048859,-0.00426239,-0.00002375,-0.00219428,0.000
 60586,0.05151910,0.04521942,-0.31674902,0.00403671,0.00267243,-0.01370
 230,-0.00089633,0.00111826,-0.00478843,-0.05456484,-0.04683989,0.33768
 041\\0.00000385,0.00000135,-0.00001288,-0.00000281,0.00000411,0.000019
 99,0.00000482,0.00001545,-0.00000926,-0.00000694,-0.00001302,-0.000008
 12,-0.00000681,0.00000345,-0.00000828,0.00000905,-0.00000106,0.0000078
 0,-0.00001384,-0.00000032,-0.00001221,0.00001212,0.00000387,-0.0000084
 1,0.00000166,-0.00001372,0.00001295,0.00000882,0.00000310,0.00001595,-
 0.00000196,0.00000206,0.00000902,-0.00000312,0.00000063,0.00000669,0.0
 0000063,-0.00000150,-0.00000214,0.00000413,-0.00000300,0.00000323,0.00
 000136,-0.00000088,-0.00000470,-0.00000178,0.00000240,-0.00000792,-0.0
 0000889,0.00000411,-0.00000314,-0.00000154,0.00000180,0.00000116,-0.00
 000613,-0.00001239,0.00000572,0.00000587,-0.00000143,0.00000714,0.0000
 0206,0.00000216,0.00000889,0.00000282,0.00000127,0.00000267,0.00000172
 ,-0.00000232,-0.00001598,-0.00000495,0.00000293,-0.00000669,-0.0000044
 1,0.00000222,-0.00000970,-0.00000452,0.00000221,-0.00001076,0.00000237
 ,-0.00000399,0.00000675,0.00000708,-0.00000407,0.00000098,0.00000861,-
 0.00000536,-0.00000547,0.00000471,-0.00000379,-0.00000462,0.00000076,0
 .00000496,0.00000099,-0.00000350,0.00000529,0.00000394,-0.00000285,-0.
 00000277,0.00000473,-0.00000195,0.00000104,0.00000171,-0.00000152,0.00
 000154,0.00000651,-0.00000492,0.00000367,0.00000344\\\@


 NOBODY LOSES ALL THE TIME
 I HAD AN UNCLE NAMED
 SOL WHO WAS A BORN FAILURE AND
 NEARLY EVERYBODY SAID HE SHOULD HAVE GONE
 INTO VAUDEVILLE PERHAPS BECAUSE MY UNCLE SOL COULD
 SING MCCANN HE WAS A DIVER ON XMAS EVE LIKE HELL ITSELF WHICH
 MAY OR MAY NOT ACCOUNT FOR THE FACT THAT MY UNCLE
 SOL INDULGED IN THAT POSSIBLY MOST INEXCUSABLE
 OF ALL TO USE A HIGHFALOOTIN PHRASE
 LUXURIES THAT IS OR TO
 WIT FARMING AND BE
 IT NEEDLESSLY
 ADDED
 MY UNCLE SOL'S FARM     
 FAILED BECAUSE THE CHICKENS
 ATE THE VEGETABLES SO
 MY UNCLE SOL HAD A
 CHICKEN FARM TILL THE
 SKUNKS ATE THE CHICKENS WHEN 
 MY UNCLE SOL
 HAD A SKUNK FARM BUT
 THE SKUNKS CAUGHT COLD AND
 DIED AND SO
 MY UNCLE SOL IMITATED THE
 SKUNKS IN A SUBTLE MANNER
 OR BY DROWNING HIMSELF IN THE WATERTANK
 BUT SOMEBODY WHO'D GIVEN MY UNCLE SOL A VICTOR     
 VICTROLA AND RECORDS WHILE HE LIVED PRESENTED TO
 HIM UPON THE AUSPICIOUS OCCASION OF HIS DECEASE A
 SCRUMPTIOUS NOT TO MENTION SPLENDIFEROUS FUNERAL WITH
 TALL BOYS IN BLACK GLOVES AND FLOWERS AND EVERYTHING AND
 I REMEMBER WE ALL CRIED LIKE THE MISSOURI
 WHEN MY UNCLE SOL'S COFFIN LURCHED BECAUSE     
 SOMEBODY PRESSED A BUTTON
 (AND DOWN WENT
 MY UNCLE
 SOL
 AND STARTED A WORM FARM)
           E. E. CUMMINGS
 Job cpu time:       0 days  5 hours 38 minutes 52.8 seconds.
 File lengths (MBytes):  RWF=    766 Int=      0 D2E=      0 Chk=     19 Scr=      1
 Normal termination of Gaussian 09 at Tue Oct 24 14:54:55 2017.
