 Entering Gaussian System, Link 0=g09
 Initial command:
 /share/apps//g09/l1.exe "/scratch/Gau-47993.inp" -scrdir="/scratch/"
 Entering Link 1 = /share/apps//g09/l1.exe PID=     47994.
  
 Copyright (c) 1988,1990,1992,1993,1995,1998,2003,2009,2013,
            Gaussian, Inc.  All Rights Reserved.
  
 This is part of the Gaussian(R) 09 program.  It is based on
 the Gaussian(R) 03 system (copyright 2003, Gaussian, Inc.),
 the Gaussian(R) 98 system (copyright 1998, Gaussian, Inc.),
 the Gaussian(R) 94 system (copyright 1995, Gaussian, Inc.),
 the Gaussian 92(TM) system (copyright 1992, Gaussian, Inc.),
 the Gaussian 90(TM) system (copyright 1990, Gaussian, Inc.),
 the Gaussian 88(TM) system (copyright 1988, Gaussian, Inc.),
 the Gaussian 86(TM) system (copyright 1986, Carnegie Mellon
 University), and the Gaussian 82(TM) system (copyright 1983,
 Carnegie Mellon University). Gaussian is a federally registered
 trademark of Gaussian, Inc.
  
 This software contains proprietary and confidential information,
 including trade secrets, belonging to Gaussian, Inc.
  
 This software is provided under written license and may be
 used, copied, transmitted, or stored only in accord with that
 written license.
  
 The following legend is applicable only to US Government
 contracts under FAR:
  
                    RESTRICTED RIGHTS LEGEND
  
 Use, reproduction and disclosure by the US Government is
 subject to restrictions as set forth in subparagraphs (a)
 and (c) of the Commercial Computer Software - Restricted
 Rights clause in FAR 52.227-19.
  
 Gaussian, Inc.
 340 Quinnipiac St., Bldg. 40, Wallingford CT 06492
  
  
 ---------------------------------------------------------------
 Warning -- This program may not be used in any manner that
 competes with the business of Gaussian, Inc. or will provide
 assistance to any competitor of Gaussian, Inc.  The licensee
 of this program is prohibited from giving any competitor of
 Gaussian, Inc. access to this program.  By using this program,
 the user acknowledges that Gaussian, Inc. is engaged in the
 business of creating and licensing software in the field of
 computational chemistry and represents and warrants to the
 licensee that it is not a competitor of Gaussian, Inc. and that
 it will not use this program in any manner prohibited above.
 ---------------------------------------------------------------
  

 Cite this work as:
 Gaussian 09, Revision D.01,
 M. J. Frisch, G. W. Trucks, H. B. Schlegel, G. E. Scuseria, 
 M. A. Robb, J. R. Cheeseman, G. Scalmani, V. Barone, B. Mennucci, 
 G. A. Petersson, H. Nakatsuji, M. Caricato, X. Li, H. P. Hratchian, 
 A. F. Izmaylov, J. Bloino, G. Zheng, J. L. Sonnenberg, M. Hada, 
 M. Ehara, K. Toyota, R. Fukuda, J. Hasegawa, M. Ishida, T. Nakajima, 
 Y. Honda, O. Kitao, H. Nakai, T. Vreven, J. A. Montgomery, Jr., 
 J. E. Peralta, F. Ogliaro, M. Bearpark, J. J. Heyd, E. Brothers, 
 K. N. Kudin, V. N. Staroverov, T. Keith, R. Kobayashi, J. Normand, 
 K. Raghavachari, A. Rendell, J. C. Burant, S. S. Iyengar, J. Tomasi, 
 M. Cossi, N. Rega, J. M. Millam, M. Klene, J. E. Knox, J. B. Cross, 
 V. Bakken, C. Adamo, J. Jaramillo, R. Gomperts, R. E. Stratmann, 
 O. Yazyev, A. J. Austin, R. Cammi, C. Pomelli, J. W. Ochterski, 
 R. L. Martin, K. Morokuma, V. G. Zakrzewski, G. A. Voth, 
 P. Salvador, J. J. Dannenberg, S. Dapprich, A. D. Daniels, 
 O. Farkas, J. B. Foresman, J. V. Ortiz, J. Cioslowski, 
 and D. J. Fox, Gaussian, Inc., Wallingford CT, 2013.
 
 ******************************************
 Gaussian 09:  EM64L-G09RevD.01 24-Apr-2013
                24-Oct-2017 
 ******************************************
 %nproc=20
 Will use up to   20 processors via shared memory.
 %mem=100GB
 %chk=Ac-4_cGalMe.chk
 -------------------------------------------------------------------
 #P PBE1PBE/6-311+G(d,p) opt optcyc=999 freq EmpiricalDispersion=GD3
 -------------------------------------------------------------------
 1/6=999,14=-1,18=20,19=15,26=3,38=1/1,3;
 2/9=110,12=2,17=6,18=5,40=1/2;
 3/5=4,6=6,7=111,11=2,16=1,25=1,30=1,71=1,74=-13,124=31/1,2,3;
 4//1;
 5/5=2,38=5/2;
 6/7=2,8=2,9=2,10=2,28=1/1;
 7//1,2,3,16;
 1/6=999,14=-1,18=20,19=15,26=3/3(2);
 2/9=110/2;
 99//99;
 2/9=110/2;
 3/5=4,6=6,7=111,11=2,16=1,25=1,30=1,71=1,74=-13,124=31/1,2,3;
 4/5=5,16=3,69=1/1;
 5/5=2,38=5/2;
 7//1,2,3,16;
 1/6=999,14=-1,18=20,19=15,26=3/3(-5);
 2/9=110/2;
 6/7=2,8=2,9=2,10=2,19=2,28=1/1;
 99/9=1/99;
 Leave Link    1 at Tue Oct 24 12:45:24 2017, MaxMem= 13421772800 cpu:         1.6
 (Enter /share/apps//g09/l101.exe)
 -------
 disacch
 -------
 Symbolic Z-matrix:
 Charge =  1 Multiplicity = 1
 C                    -1.98459   0.33612   1.87575 
 C                    -0.54782   0.08053   1.39428 
 C                     0.29713   1.33514   1.28673 
 C                     1.73963   1.02176   0.87283 
 C                     1.77364  -0.14483  -0.15681 
 C                     0.37552  -0.32168  -0.76539 
 O                    -0.63813  -0.57312   0.08396 
 O                     2.32732   2.21348   0.3999 
 O                    -0.32659   2.29645   0.31805 
 O                    -1.96316   0.93294   3.15647 
 H                    -2.53948  -0.61703   1.86034 
 H                    -2.49074   1.03284   1.18995 
 H                    -0.03425  -0.61329   2.08101 
 H                     0.25357   1.90428   2.22267 
 H                     2.25017   0.64323   1.77961 
 H                     2.47776   0.10114  -0.9734 
 H                     0.30386  -1.00216  -1.62032 
 O                     2.16043  -1.31076   0.53968 
 C                    -2.05375  -0.0019    4.24317 
 H                    -2.05046   0.59538   5.1613 
 H                    -2.99192  -0.57711   4.1867 
 H                    -1.19946  -0.70007   4.2686 
 C                     2.54     -2.42121  -0.29465 
 H                     1.66916  -2.89334  -0.77566 
 H                     3.26463  -2.10375  -1.06185 
 H                     3.013    -3.14962   0.37184 
 C                     3.76518   2.20957   0.45696 
 H                     4.11098   2.06283   1.49234 
 H                     4.2006    1.42899  -0.18774 
 H                     4.08638   3.19225   0.09754 
 C                    -0.23734   2.13657  -0.96725 
 O                     0.11404   1.06159  -1.56868 
 C                    -0.58151   3.31966  -1.79112 
 H                     0.30471   3.9731   -1.81728 
 H                    -1.3925    3.88465  -1.31729 
 H                    -0.84109   3.02281  -2.81055 
 
 NAtoms=     36 NQM=       36 NQMF=       0 NMMI=      0 NMMIF=      0
                NMic=       0 NMicF=      0.
                    Isotopes and Nuclear Properties:
 (Nuclear quadrupole moments (NQMom) in fm**2, nuclear magnetic moments (NMagM)
  in nuclear magnetons)

  Atom         1           2           3           4           5           6           7           8           9          10
 IAtWgt=          12          12          12          12          12          12          16          16          16          16
 AtmWgt=  12.0000000  12.0000000  12.0000000  12.0000000  12.0000000  12.0000000  15.9949146  15.9949146  15.9949146  15.9949146
 NucSpn=           0           0           0           0           0           0           0           0           0           0
 AtZEff=   0.0000000   0.0000000   0.0000000   0.0000000   0.0000000   0.0000000   0.0000000   0.0000000   0.0000000   0.0000000
 NQMom=    0.0000000   0.0000000   0.0000000   0.0000000   0.0000000   0.0000000   0.0000000   0.0000000   0.0000000   0.0000000
 NMagM=    0.0000000   0.0000000   0.0000000   0.0000000   0.0000000   0.0000000   0.0000000   0.0000000   0.0000000   0.0000000
 AtZNuc=   6.0000000   6.0000000   6.0000000   6.0000000   6.0000000   6.0000000   8.0000000   8.0000000   8.0000000   8.0000000

  Atom        11          12          13          14          15          16          17          18          19          20
 IAtWgt=           1           1           1           1           1           1           1          16          12           1
 AtmWgt=   1.0078250   1.0078250   1.0078250   1.0078250   1.0078250   1.0078250   1.0078250  15.9949146  12.0000000   1.0078250
 NucSpn=           1           1           1           1           1           1           1           0           0           1
 AtZEff=   0.0000000   0.0000000   0.0000000   0.0000000   0.0000000   0.0000000   0.0000000   0.0000000   0.0000000   0.0000000
 NQMom=    0.0000000   0.0000000   0.0000000   0.0000000   0.0000000   0.0000000   0.0000000   0.0000000   0.0000000   0.0000000
 NMagM=    2.7928460   2.7928460   2.7928460   2.7928460   2.7928460   2.7928460   2.7928460   0.0000000   0.0000000   2.7928460
 AtZNuc=   1.0000000   1.0000000   1.0000000   1.0000000   1.0000000   1.0000000   1.0000000   8.0000000   6.0000000   1.0000000

  Atom        21          22          23          24          25          26          27          28          29          30
 IAtWgt=           1           1          12           1           1           1          12           1           1           1
 AtmWgt=   1.0078250   1.0078250  12.0000000   1.0078250   1.0078250   1.0078250  12.0000000   1.0078250   1.0078250   1.0078250
 NucSpn=           1           1           0           1           1           1           0           1           1           1
 AtZEff=   0.0000000   0.0000000   0.0000000   0.0000000   0.0000000   0.0000000   0.0000000   0.0000000   0.0000000   0.0000000
 NQMom=    0.0000000   0.0000000   0.0000000   0.0000000   0.0000000   0.0000000   0.0000000   0.0000000   0.0000000   0.0000000
 NMagM=    2.7928460   2.7928460   0.0000000   2.7928460   2.7928460   2.7928460   0.0000000   2.7928460   2.7928460   2.7928460
 AtZNuc=   1.0000000   1.0000000   6.0000000   1.0000000   1.0000000   1.0000000   6.0000000   1.0000000   1.0000000   1.0000000

  Atom        31          32          33          34          35          36
 IAtWgt=          12          16          12           1           1           1
 AtmWgt=  12.0000000  15.9949146  12.0000000   1.0078250   1.0078250   1.0078250
 NucSpn=           0           0           0           1           1           1
 AtZEff=   0.0000000   0.0000000   0.0000000   0.0000000   0.0000000   0.0000000
 NQMom=    0.0000000   0.0000000   0.0000000   0.0000000   0.0000000   0.0000000
 NMagM=    0.0000000   0.0000000   0.0000000   2.7928460   2.7928460   2.7928460
 AtZNuc=   6.0000000   8.0000000   6.0000000   1.0000000   1.0000000   1.0000000
 Leave Link  101 at Tue Oct 24 12:45:25 2017, MaxMem= 13421772800 cpu:         4.1
 (Enter /share/apps//g09/l103.exe)

 GradGradGradGradGradGradGradGradGradGradGradGradGradGradGradGradGradGrad
 Berny optimization.
 Initialization pass.
                           ----------------------------
                           !    Initial Parameters    !
                           ! (Angstroms and Degrees)  !
 --------------------------                            --------------------------
 ! Name  Definition              Value          Derivative Info.                !
 --------------------------------------------------------------------------------
 ! R1    R(1,2)                  1.5367         estimate D2E/DX2                !
 ! R2    R(1,10)                 1.4131         estimate D2E/DX2                !
 ! R3    R(1,11)                 1.103          estimate D2E/DX2                !
 ! R4    R(1,12)                 1.1009         estimate D2E/DX2                !
 ! R5    R(2,3)                  1.5164         estimate D2E/DX2                !
 ! R6    R(2,7)                  1.4671         estimate D2E/DX2                !
 ! R7    R(2,13)                 1.1031         estimate D2E/DX2                !
 ! R8    R(3,4)                  1.5331         estimate D2E/DX2                !
 ! R9    R(3,9)                  1.5005         estimate D2E/DX2                !
 ! R10   R(3,14)                 1.0963         estimate D2E/DX2                !
 ! R11   R(4,5)                  1.5564         estimate D2E/DX2                !
 ! R12   R(4,8)                  1.4104         estimate D2E/DX2                !
 ! R13   R(4,15)                 1.1073         estimate D2E/DX2                !
 ! R14   R(5,6)                  1.5351         estimate D2E/DX2                !
 ! R15   R(5,16)                 1.1059         estimate D2E/DX2                !
 ! R16   R(5,18)                 1.4121         estimate D2E/DX2                !
 ! R17   R(6,7)                  1.3461         estimate D2E/DX2                !
 ! R18   R(6,17)                 1.095          estimate D2E/DX2                !
 ! R19   R(6,32)                 1.6208         estimate D2E/DX2                !
 ! R20   R(8,27)                 1.439          estimate D2E/DX2                !
 ! R21   R(9,31)                 1.2983         estimate D2E/DX2                !
 ! R22   R(10,19)                1.4363         estimate D2E/DX2                !
 ! R23   R(18,23)                1.4399         estimate D2E/DX2                !
 ! R24   R(19,20)                1.0953         estimate D2E/DX2                !
 ! R25   R(19,21)                1.1019         estimate D2E/DX2                !
 ! R26   R(19,22)                1.1036         estimate D2E/DX2                !
 ! R27   R(23,24)                1.1012         estimate D2E/DX2                !
 ! R28   R(23,25)                1.102          estimate D2E/DX2                !
 ! R29   R(23,26)                1.0948         estimate D2E/DX2                !
 ! R30   R(27,28)                1.1014         estimate D2E/DX2                !
 ! R31   R(27,29)                1.1021         estimate D2E/DX2                !
 ! R32   R(27,30)                1.0945         estimate D2E/DX2                !
 ! R33   R(31,32)                1.2809         estimate D2E/DX2                !
 ! R34   R(31,33)                1.4822         estimate D2E/DX2                !
 ! R35   R(33,34)                1.1014         estimate D2E/DX2                !
 ! R36   R(33,35)                1.0961         estimate D2E/DX2                !
 ! R37   R(33,36)                1.093          estimate D2E/DX2                !
 ! A1    A(2,1,10)             109.8785         estimate D2E/DX2                !
 ! A2    A(2,1,11)             108.7991         estimate D2E/DX2                !
 ! A3    A(2,1,12)             109.874          estimate D2E/DX2                !
 ! A4    A(10,1,11)            112.6594         estimate D2E/DX2                !
 ! A5    A(10,1,12)            107.7145         estimate D2E/DX2                !
 ! A6    A(11,1,12)            107.872          estimate D2E/DX2                !
 ! A7    A(1,2,3)              113.9273         estimate D2E/DX2                !
 ! A8    A(1,2,7)              107.2406         estimate D2E/DX2                !
 ! A9    A(1,2,13)             110.1737         estimate D2E/DX2                !
 ! A10   A(3,2,7)              109.8508         estimate D2E/DX2                !
 ! A11   A(3,2,13)             107.7659         estimate D2E/DX2                !
 ! A12   A(7,2,13)             107.7256         estimate D2E/DX2                !
 ! A13   A(2,3,4)              111.9814         estimate D2E/DX2                !
 ! A14   A(2,3,9)              110.1343         estimate D2E/DX2                !
 ! A15   A(2,3,14)             110.2939         estimate D2E/DX2                !
 ! A16   A(4,3,9)              110.3519         estimate D2E/DX2                !
 ! A17   A(4,3,14)             111.9629         estimate D2E/DX2                !
 ! A18   A(9,3,14)             101.656          estimate D2E/DX2                !
 ! A19   A(3,4,5)              110.6337         estimate D2E/DX2                !
 ! A20   A(3,4,8)              108.0516         estimate D2E/DX2                !
 ! A21   A(3,4,15)             106.4159         estimate D2E/DX2                !
 ! A22   A(5,4,8)              113.7285         estimate D2E/DX2                !
 ! A23   A(5,4,15)             105.9886         estimate D2E/DX2                !
 ! A24   A(8,4,15)             111.7964         estimate D2E/DX2                !
 ! A25   A(4,5,6)              109.1921         estimate D2E/DX2                !
 ! A26   A(4,5,16)             109.6142         estimate D2E/DX2                !
 ! A27   A(4,5,18)             107.3716         estimate D2E/DX2                !
 ! A28   A(6,5,16)             108.2263         estimate D2E/DX2                !
 ! A29   A(6,5,18)             110.4807         estimate D2E/DX2                !
 ! A30   A(16,5,18)            111.9268         estimate D2E/DX2                !
 ! A31   A(5,6,7)              117.2071         estimate D2E/DX2                !
 ! A32   A(5,6,17)             116.1501         estimate D2E/DX2                !
 ! A33   A(5,6,32)             104.1876         estimate D2E/DX2                !
 ! A34   A(7,6,17)             109.1023         estimate D2E/DX2                !
 ! A35   A(7,6,32)             110.526          estimate D2E/DX2                !
 ! A36   A(17,6,32)             97.6344         estimate D2E/DX2                !
 ! A37   A(2,7,6)              115.7188         estimate D2E/DX2                !
 ! A38   A(4,8,27)             113.6258         estimate D2E/DX2                !
 ! A39   A(3,9,31)             122.1169         estimate D2E/DX2                !
 ! A40   A(1,10,19)            114.1958         estimate D2E/DX2                !
 ! A41   A(5,18,23)            115.0344         estimate D2E/DX2                !
 ! A42   A(10,19,20)           106.2058         estimate D2E/DX2                !
 ! A43   A(10,19,21)           110.7736         estimate D2E/DX2                !
 ! A44   A(10,19,22)           112.3563         estimate D2E/DX2                !
 ! A45   A(20,19,21)           109.279          estimate D2E/DX2                !
 ! A46   A(20,19,22)           108.865          estimate D2E/DX2                !
 ! A47   A(21,19,22)           109.2694         estimate D2E/DX2                !
 ! A48   A(18,23,24)           112.0419         estimate D2E/DX2                !
 ! A49   A(18,23,25)           110.7668         estimate D2E/DX2                !
 ! A50   A(18,23,26)           105.9179         estimate D2E/DX2                !
 ! A51   A(24,23,25)           109.8408         estimate D2E/DX2                !
 ! A52   A(24,23,26)           108.8041         estimate D2E/DX2                !
 ! A53   A(25,23,26)           109.3537         estimate D2E/DX2                !
 ! A54   A(8,27,28)            110.5698         estimate D2E/DX2                !
 ! A55   A(8,27,29)            111.9324         estimate D2E/DX2                !
 ! A56   A(8,27,30)            106.1269         estimate D2E/DX2                !
 ! A57   A(28,27,29)           109.3606         estimate D2E/DX2                !
 ! A58   A(28,27,30)           109.6435         estimate D2E/DX2                !
 ! A59   A(29,27,30)           109.1392         estimate D2E/DX2                !
 ! A60   A(9,31,32)            125.9473         estimate D2E/DX2                !
 ! A61   A(9,31,33)            115.8507         estimate D2E/DX2                !
 ! A62   A(32,31,33)           118.2018         estimate D2E/DX2                !
 ! A63   A(6,32,31)            121.8552         estimate D2E/DX2                !
 ! A64   A(31,33,34)           107.4531         estimate D2E/DX2                !
 ! A65   A(31,33,35)           110.057          estimate D2E/DX2                !
 ! A66   A(31,33,36)           110.9024         estimate D2E/DX2                !
 ! A67   A(34,33,35)           107.4454         estimate D2E/DX2                !
 ! A68   A(34,33,36)           109.2726         estimate D2E/DX2                !
 ! A69   A(35,33,36)           111.5585         estimate D2E/DX2                !
 ! D1    D(10,1,2,3)           -59.8688         estimate D2E/DX2                !
 ! D2    D(10,1,2,7)           178.3504         estimate D2E/DX2                !
 ! D3    D(10,1,2,13)           61.3734         estimate D2E/DX2                !
 ! D4    D(11,1,2,3)           176.3634         estimate D2E/DX2                !
 ! D5    D(11,1,2,7)            54.5826         estimate D2E/DX2                !
 ! D6    D(11,1,2,13)          -62.3944         estimate D2E/DX2                !
 ! D7    D(12,1,2,3)            58.4739         estimate D2E/DX2                !
 ! D8    D(12,1,2,7)           -63.3069         estimate D2E/DX2                !
 ! D9    D(12,1,2,13)          179.716          estimate D2E/DX2                !
 ! D10   D(2,1,10,19)          -93.2347         estimate D2E/DX2                !
 ! D11   D(11,1,10,19)          28.2505         estimate D2E/DX2                !
 ! D12   D(12,1,10,19)         147.097          estimate D2E/DX2                !
 ! D13   D(1,2,3,4)            177.0737         estimate D2E/DX2                !
 ! D14   D(1,2,3,9)            -59.7342         estimate D2E/DX2                !
 ! D15   D(1,2,3,14)            51.6735         estimate D2E/DX2                !
 ! D16   D(7,2,3,4)            -62.6            estimate D2E/DX2                !
 ! D17   D(7,2,3,9)             60.5921         estimate D2E/DX2                !
 ! D18   D(7,2,3,14)           171.9998         estimate D2E/DX2                !
 ! D19   D(13,2,3,4)            54.502          estimate D2E/DX2                !
 ! D20   D(13,2,3,9)           177.6941         estimate D2E/DX2                !
 ! D21   D(13,2,3,14)          -70.8982         estimate D2E/DX2                !
 ! D22   D(1,2,7,6)            149.5846         estimate D2E/DX2                !
 ! D23   D(3,2,7,6)             25.285          estimate D2E/DX2                !
 ! D24   D(13,2,7,6)           -91.8422         estimate D2E/DX2                !
 ! D25   D(2,3,4,5)             37.013          estimate D2E/DX2                !
 ! D26   D(2,3,4,8)            162.1105         estimate D2E/DX2                !
 ! D27   D(2,3,4,15)           -77.6809         estimate D2E/DX2                !
 ! D28   D(9,3,4,5)            -86.0562         estimate D2E/DX2                !
 ! D29   D(9,3,4,8)             39.0413         estimate D2E/DX2                !
 ! D30   D(9,3,4,15)           159.2499         estimate D2E/DX2                !
 ! D31   D(14,3,4,5)           161.4899         estimate D2E/DX2                !
 ! D32   D(14,3,4,8)           -73.4126         estimate D2E/DX2                !
 ! D33   D(14,3,4,15)           46.796          estimate D2E/DX2                !
 ! D34   D(2,3,9,31)           -77.1856         estimate D2E/DX2                !
 ! D35   D(4,3,9,31)            46.9539         estimate D2E/DX2                !
 ! D36   D(14,3,9,31)          165.8897         estimate D2E/DX2                !
 ! D37   D(3,4,5,6)             17.6479         estimate D2E/DX2                !
 ! D38   D(3,4,5,16)           136.0477         estimate D2E/DX2                !
 ! D39   D(3,4,5,18)          -102.1591         estimate D2E/DX2                !
 ! D40   D(8,4,5,6)           -104.169          estimate D2E/DX2                !
 ! D41   D(8,4,5,16)            14.2308         estimate D2E/DX2                !
 ! D42   D(8,4,5,18)           136.024          estimate D2E/DX2                !
 ! D43   D(15,4,5,6)           132.6102         estimate D2E/DX2                !
 ! D44   D(15,4,5,16)         -108.99           estimate D2E/DX2                !
 ! D45   D(15,4,5,18)           12.8032         estimate D2E/DX2                !
 ! D46   D(3,4,8,27)           157.683          estimate D2E/DX2                !
 ! D47   D(5,4,8,27)           -79.0787         estimate D2E/DX2                !
 ! D48   D(15,4,8,27)           40.91           estimate D2E/DX2                !
 ! D49   D(4,5,6,7)            -58.0748         estimate D2E/DX2                !
 ! D50   D(4,5,6,17)           170.4474         estimate D2E/DX2                !
 ! D51   D(4,5,6,32)            64.3792         estimate D2E/DX2                !
 ! D52   D(16,5,6,7)          -177.3388         estimate D2E/DX2                !
 ! D53   D(16,5,6,17)           51.1833         estimate D2E/DX2                !
 ! D54   D(16,5,6,32)          -54.8849         estimate D2E/DX2                !
 ! D55   D(18,5,6,7)            59.7959         estimate D2E/DX2                !
 ! D56   D(18,5,6,17)          -71.682          estimate D2E/DX2                !
 ! D57   D(18,5,6,32)         -177.7501         estimate D2E/DX2                !
 ! D58   D(4,5,18,23)         -166.4978         estimate D2E/DX2                !
 ! D59   D(6,5,18,23)           74.5204         estimate D2E/DX2                !
 ! D60   D(16,5,18,23)         -46.1608         estimate D2E/DX2                !
 ! D61   D(5,6,7,2)             34.5556         estimate D2E/DX2                !
 ! D62   D(17,6,7,2)           169.181          estimate D2E/DX2                !
 ! D63   D(32,6,7,2)           -84.5713         estimate D2E/DX2                !
 ! D64   D(5,6,32,31)          -78.6302         estimate D2E/DX2                !
 ! D65   D(7,6,32,31)           48.1118         estimate D2E/DX2                !
 ! D66   D(17,6,32,31)         161.862          estimate D2E/DX2                !
 ! D67   D(4,8,27,28)          -59.3126         estimate D2E/DX2                !
 ! D68   D(4,8,27,29)           62.8836         estimate D2E/DX2                !
 ! D69   D(4,8,27,30)         -178.1466         estimate D2E/DX2                !
 ! D70   D(3,9,31,32)           15.5185         estimate D2E/DX2                !
 ! D71   D(3,9,31,33)         -164.6214         estimate D2E/DX2                !
 ! D72   D(1,10,19,20)        -178.6497         estimate D2E/DX2                !
 ! D73   D(1,10,19,21)         -60.0958         estimate D2E/DX2                !
 ! D74   D(1,10,19,22)          62.4284         estimate D2E/DX2                !
 ! D75   D(5,18,23,24)         -73.6182         estimate D2E/DX2                !
 ! D76   D(5,18,23,25)          49.4163         estimate D2E/DX2                !
 ! D77   D(5,18,23,26)         167.8866         estimate D2E/DX2                !
 ! D78   D(9,31,32,6)            5.6476         estimate D2E/DX2                !
 ! D79   D(33,31,32,6)        -174.2096         estimate D2E/DX2                !
 ! D80   D(9,31,33,34)          81.6273         estimate D2E/DX2                !
 ! D81   D(9,31,33,35)         -35.0742         estimate D2E/DX2                !
 ! D82   D(9,31,33,36)        -159.0033         estimate D2E/DX2                !
 ! D83   D(32,31,33,34)        -98.5012         estimate D2E/DX2                !
 ! D84   D(32,31,33,35)        144.7974         estimate D2E/DX2                !
 ! D85   D(32,31,33,36)         20.8682         estimate D2E/DX2                !
 --------------------------------------------------------------------------------
 Trust Radius=3.00D-01 FncErr=1.00D-07 GrdErr=1.00D-06
 Number of steps in this run=    216 maximum allowed number of steps=    216.
 GradGradGradGradGradGradGradGradGradGradGradGradGradGradGradGradGradGrad

 Leave Link  103 at Tue Oct 24 12:45:25 2017, MaxMem= 13421772800 cpu:         0.3
 (Enter /share/apps//g09/l202.exe)
                          Input orientation:                          
 ---------------------------------------------------------------------
 Center     Atomic      Atomic             Coordinates (Angstroms)
 Number     Number       Type             X           Y           Z
 ---------------------------------------------------------------------
      1          6           0       -1.984590    0.336120    1.875750
      2          6           0       -0.547820    0.080530    1.394280
      3          6           0        0.297130    1.335140    1.286730
      4          6           0        1.739630    1.021760    0.872830
      5          6           0        1.773640   -0.144830   -0.156810
      6          6           0        0.375520   -0.321680   -0.765390
      7          8           0       -0.638130   -0.573120    0.083960
      8          8           0        2.327320    2.213480    0.399900
      9          8           0       -0.326590    2.296450    0.318050
     10          8           0       -1.963160    0.932940    3.156470
     11          1           0       -2.539480   -0.617030    1.860340
     12          1           0       -2.490740    1.032840    1.189950
     13          1           0       -0.034250   -0.613290    2.081010
     14          1           0        0.253570    1.904280    2.222670
     15          1           0        2.250170    0.643230    1.779610
     16          1           0        2.477760    0.101140   -0.973400
     17          1           0        0.303860   -1.002160   -1.620320
     18          8           0        2.160430   -1.310760    0.539680
     19          6           0       -2.053750   -0.001900    4.243170
     20          1           0       -2.050460    0.595380    5.161300
     21          1           0       -2.991920   -0.577110    4.186700
     22          1           0       -1.199460   -0.700070    4.268600
     23          6           0        2.540000   -2.421210   -0.294650
     24          1           0        1.669160   -2.893340   -0.775660
     25          1           0        3.264630   -2.103750   -1.061850
     26          1           0        3.013000   -3.149620    0.371840
     27          6           0        3.765180    2.209570    0.456960
     28          1           0        4.110980    2.062830    1.492340
     29          1           0        4.200600    1.428990   -0.187740
     30          1           0        4.086380    3.192250    0.097540
     31          6           0       -0.237340    2.136570   -0.967250
     32          8           0        0.114040    1.061590   -1.568680
     33          6           0       -0.581510    3.319660   -1.791120
     34          1           0        0.304710    3.973100   -1.817280
     35          1           0       -1.392500    3.884650   -1.317290
     36          1           0       -0.841090    3.022810   -2.810550
 ---------------------------------------------------------------------
                    Distance matrix (angstroms):
                    1          2          3          4          5
     1  C    0.000000
     2  C    1.536700   0.000000
     3  C    2.559537   1.516428   0.000000
     4  C    3.917367   2.527895   1.533077   0.000000
     5  C    4.299640   2.801043   2.540512   1.556357   0.000000
     6  C    3.602560   2.382961   2.638635   2.519800   1.535052
     7  O    2.418715   1.467090   2.441889   2.969798   2.461308
     8  O    4.929014   3.715467   2.383195   1.410404   2.485581
     9  O    3.003046   2.473361   1.500495   2.490358   3.255197
    10  O    1.413116   2.415596   2.960845   4.351270   5.109118
    11  H    1.103012   2.161137   3.490896   4.687386   4.784859
    12  H    1.100876   2.173381   2.805881   4.242254   4.624457
    13  H    2.178838   1.103059   2.130041   2.698099   2.914749
    14  H    2.754785   2.157434   1.096267   2.193008   3.488752
    15  H    4.246970   2.879906   2.129797   1.107333   2.144258
    16  H    5.299570   3.841935   3.374328   2.191105   1.105941
    17  H    4.387539   3.314421   3.730142   3.517596   2.244355
    18  O    4.656016   3.162380   3.321258   2.393473   1.412125
    19  C    2.392429   3.223475   4.006850   5.176563   5.833452
    20  H    3.296421   4.088207   4.590285   5.739125   6.591961
    21  H    2.681267   3.768783   4.783762   5.993804   6.462469
    22  H    2.723206   3.048883   3.908121   4.809803   5.360212
    23  C    5.725855   4.318081   4.652031   3.722586   2.405871
    24  H    5.550610   4.297388   4.900608   4.248587   2.819255
    25  H    6.491284   5.033729   5.113497   3.979626   2.622883
    26  H    6.275989   4.915149   5.322222   4.390088   3.293060
    27  C    6.211492   4.900342   3.671582   2.384679   3.144224
    28  H    6.347008   5.063946   3.888092   2.662878   3.613394
    29  H    6.611273   5.183495   4.173721   2.710538   2.892750
    30  H    6.940907   5.730632   4.384227   3.289276   4.068115
    31  C    3.791721   3.146510   2.451198   2.921833   3.147323
    32  O    4.098128   3.190559   2.874320   2.933445   2.490602
    33  C    4.931134   4.543113   3.766097   4.214815   4.496709
    34  H    5.666303   5.117912   4.073545   4.243359   4.676779
    35  H    4.810212   4.747360   4.016936   4.775249   5.254319
    36  H    5.521531   5.140390   4.575093   4.922561   4.890101
                    6          7          8          9         10
     6  C    0.000000
     7  O    1.346144   0.000000
     8  O    3.405064   4.081526   0.000000
     9  O    2.919145   2.895909   2.656468   0.000000
    10  O    4.735449   3.669365   5.258011   3.548824   0.000000
    11  H    3.934325   2.602419   5.816392   3.970379   2.101072
    12  H    3.724718   2.689700   5.023126   2.653387   2.038510
    13  H    2.890491   2.086742   4.048922   3.414686   2.695948
    14  H    3.728039   3.392156   2.778225   2.029276   2.594104
    15  H    3.304904   3.563287   2.091707   3.392490   4.442052
    16  H    2.154404   3.358781   2.523998   3.788352   6.121233
    17  H    1.095031   1.993989   4.303024   3.877573   5.630428
    18  O    2.422270   2.929801   3.530957   4.387066   5.374549
    19  C    5.575777   4.430497   6.234774   4.865394   1.436332
    20  H    6.469315   5.398097   6.667393   5.415020   2.034923
    21  H    5.994005   4.729991   7.100814   5.507067   2.097611
    22  H    5.288175   4.224029   5.991143   5.034668   2.118205
    23  C    3.051982   3.695848   4.691267   5.554193   6.590827
    24  H    2.878723   3.383187   5.281546   5.666846   6.579955
    25  H    3.407436   4.345946   4.653358   5.844891   7.371940
    26  H    4.030737   4.477943   5.406828   6.388696   7.013104
    27  C    4.403540   5.222225   1.438997   4.095049   6.459955
    28  H    4.973620   5.611222   2.097037   4.596255   6.398528
    29  H    4.246147   5.243622   2.114219   4.637215   7.030060
    30  H    5.182937   6.041456   2.035609   4.508368   7.145521
    31  C    2.541523   2.933956   2.907318   1.298277   4.629497
    32  O    1.620828   2.443206   3.178170   2.297560   5.163173
    33  C    3.902228   4.321211   3.805981   2.358080   5.664277
    34  H    4.422287   5.017148   3.478951   2.787352   6.254918
    35  H    4.596053   4.733317   4.424772   2.516521   5.390062
    36  H    4.104684   4.620616   4.582666   3.252760   6.421209
                   11         12         13         14         15
    11  H    0.000000
    12  H    1.781536   0.000000
    13  H    2.514933   3.088377   0.000000
    14  H    3.780134   3.058947   2.537926   0.000000
    15  H    4.953334   4.793300   2.624549   2.402699   0.000000
    16  H    5.806767   5.498558   4.018709   4.291060   2.815088
    17  H    4.510865   4.455180   3.737029   4.818557   4.249112
    18  O    4.930979   5.248685   2.771062   4.099397   2.315935
    19  C    2.508425   3.253275   3.021111   3.611048   5.000905
    20  H    3.550411   4.019557   3.874813   3.956933   5.471155
    21  H    2.370284   3.438551   3.630847   4.532981   5.896000
    22  H    2.757221   3.761445   2.480080   3.616596   4.460883
    23  C    5.805184   6.280354   3.941966   5.502229   3.711785
    24  H    5.462850   6.048411   4.032468   5.831898   4.401625
    25  H    6.666125   6.930590   4.793918   5.993234   4.080309
    26  H    6.281694   6.960850   4.317403   6.048300   4.116969
    27  C    7.050382   6.407691   5.004173   3.942377   2.549133
    28  H    7.179533   6.688425   4.969012   3.929139   2.358050
    29  H    7.335496   6.843171   5.220353   4.649196   2.879594
    30  H    7.843475   7.008204   5.949444   4.567874   3.563500
    31  C    4.569182   3.309009   4.110336   3.235822   3.995374
    32  O    4.649421   3.794172   4.018389   3.886377   3.993635
    33  C    5.715272   4.214437   5.546258   4.337184   5.285055
    34  H    6.533269   5.050060   6.028809   4.539144   5.273563
    35  H    5.628323   3.952873   5.798685   4.377525   5.776386
    36  H    6.160372   4.762912   6.148136   5.270929   6.023940
                   16         17         18         19         20
    16  H    0.000000
    17  H    2.522225   0.000000
    18  O    2.093698   2.864906   0.000000
    19  C    6.910702   6.398387   5.760926   0.000000
    20  H    7.640916   7.354273   6.536386   1.095316   0.000000
    21  H    7.550103   6.690614   6.354975   1.101916   1.791905
    22  H    6.453096   6.085278   5.056347   1.103585   1.788660
    23  C    2.612819   2.961659   1.439889   6.895463   7.742062
    24  H    3.108029   2.480737   2.115662   6.885429   7.826508
    25  H    2.342761   3.208044   2.100712   7.800396   8.617603
    26  H    3.558594   3.989953   2.033827   7.111068   7.912179
    27  C    2.854620   5.158589   3.869727   7.286009   7.652326
    28  H    3.549015   5.794565   4.011648   7.059325   7.319701
    29  H    2.312709   4.811170   3.492515   7.797263   8.269395
    30  H    3.645481   5.903522   4.917507   8.067840   8.369361
    31  C    3.393344   3.251311   4.461415   5.917844   6.574329
    32  O    2.619923   2.073105   3.776366   6.293483   7.084846
    33  C    4.515160   4.414882   5.864440   7.043643   7.610234
    34  H    4.519552   4.979157   6.076029   7.621812   8.102864
    35  H    5.423294   5.181735   6.562312   6.816248   7.295501
    36  H    4.788115   4.350625   6.246038   7.770095   8.420534
                   21         22         23         24         25
    21  H    0.000000
    22  H    1.798538   0.000000
    23  C    7.354274   6.145660   0.000000
    24  H    7.191356   6.203545   1.101199   0.000000
    25  H    8.307968   7.093103   1.102028   1.803020   0.000000
    26  H    7.565053   6.239379   1.094769   1.785593   1.792381
    27  C    8.205787   6.902337   4.848722   5.652640   4.600224
    28  H    8.042391   6.598637   5.076212   5.972431   4.959898
    29  H    8.654046   7.317958   4.194408   5.043449   3.757707
    30  H    9.001757   7.777403   5.835755   6.606045   5.483345
    31  C    6.443211   6.032108   5.379532   5.382513   5.500278
    32  O    6.742160   6.237192   4.431516   4.323049   4.494716
    33  C    7.531881   7.297965   6.703793   6.685660   6.688647
    34  H    8.223135   7.819142   6.942775   7.077761   6.801464
    35  H    7.263563   7.229045   7.501614   7.457096   7.590457
    36  H    8.157635   8.006412   6.884684   6.741140   6.796801
                   26         27         28         29         30
    26  H    0.000000
    27  C    5.412387   0.000000
    28  H    5.443410   1.101418   0.000000
    29  H    4.763108   1.102059   1.797903   0.000000
    30  H    6.437911   1.094537   1.794899   1.789837   0.000000
    31  C    6.348360   4.248985   4.996289   4.561098   4.576330
    32  O    5.468444   4.330346   5.133016   4.329197   4.805776
    33  C    7.710414   5.017956   5.863463   5.386468   5.037109
    34  H    7.928444   4.500784   5.393552   4.930097   4.310138
    35  H    8.470097   5.705744   6.442153   6.211998   5.700815
    36  H    7.942324   5.705761   6.630190   5.902375   5.724129
                   31         32         33         34         35
    31  C    0.000000
    32  O    1.280925   0.000000
    33  C    1.482200   2.373215   0.000000
    34  H    2.095045   2.928318   1.101387   0.000000
    35  H    2.124313   3.209755   1.096099   1.771535   0.000000
    36  H    2.132531   2.510159   1.093041   1.789551   1.810151
                   36
    36  H    0.000000
 Stoichiometry    C11H19O6(1+)
 Framework group  C1[X(C11H19O6)]
 Deg. of freedom   102
 Full point group                 C1      NOp   1
 Largest Abelian subgroup         C1      NOp   1
 Largest concise Abelian subgroup C1      NOp   1
                         Standard orientation:                         
 ---------------------------------------------------------------------
 Center     Atomic      Atomic             Coordinates (Angstroms)
 Number     Number       Type             X           Y           Z
 ---------------------------------------------------------------------
      1          6           0       -2.716884    0.079278   -0.519424
      2          6           0       -1.317032   -0.481483   -0.223775
      3          6           0       -0.512269    0.356061    0.751126
      4          6           0        0.845819   -0.280139    1.069201
      5          6           0        1.442552   -0.960870   -0.196802
      6          6           0        0.728933   -0.420743   -1.443957
      7          8           0       -0.606937   -0.575454   -1.504122
      8          8           0        1.676416    0.716420    1.622572
      9          8           0       -0.324853    1.742485    0.208734
     10          8           0       -3.465521    0.157705    0.676524
     11          1           0       -3.199796   -0.554368   -1.282263
     12          1           0       -2.633220    1.097449   -0.929614
     13          1           0       -1.395337   -1.500026    0.192370
     14          1           0       -1.096603    0.550181    1.658139
     15          1           0        0.647580   -1.097060    1.789983
     16          1           0        2.517454   -0.714097   -0.279228
     17          1           0        1.165769   -0.699448   -2.408628
     18          8           0        1.228955   -2.350830   -0.068408
     19          6           0       -4.279263   -0.996541    0.938419
     20          1           0       -4.814242   -0.788133    1.871200
     21          1           0       -5.008928   -1.152448    0.127555
     22          1           0       -3.678352   -1.912951    1.068801
     23          6           0        1.974687   -3.169464   -0.988735
     24          1           0        1.570568   -3.114522   -2.011628
     25          1           0        3.039150   -2.884197   -0.991286
     26          1           0        1.875371   -4.197184   -0.624804
     27          6           0        2.755379    0.192032    2.417285
     28          1           0        2.363773   -0.408698    3.253282
     29          1           0        3.446894   -0.422445    1.818320
     30          1           0        3.294376    1.060399    2.808990
     31          6           0        0.541039    2.008614   -0.721282
     32          8           0        1.120974    1.151625   -1.476274
     33          6           0        0.868799    3.441992   -0.908140
     34          1           0        1.615178    3.712432   -0.144704
     35          1           0       -0.020752    4.057275   -0.730494
     36          1           0        1.288270    3.619807   -1.901703
 ---------------------------------------------------------------------
 Rotational constants (GHZ):      0.5391525      0.3944861      0.3244335
 Leave Link  202 at Tue Oct 24 12:45:25 2017, MaxMem= 13421772800 cpu:         0.5
 (Enter /share/apps//g09/l301.exe)
 Standard basis: 6-311+G(d,p) (5D, 7F)
 Ernie: Thresh=  0.10000D-02 Tol=  0.10000D-05 Strict=F.
 There are   505 symmetry adapted cartesian basis functions of A   symmetry.
 There are   488 symmetry adapted basis functions of A   symmetry.
   488 basis functions,   764 primitive gaussians,   505 cartesian basis functions
    66 alpha electrons       66 beta electrons
       nuclear repulsion energy      1435.9462117828 Hartrees.
 IExCor= 1009 DFT=T Ex+Corr=PBE1PBE ExCW=0 ScaHFX=  0.250000
 ScaDFX=  0.750000  0.750000  1.000000  1.000000 ScalE2=  1.000000  1.000000
 IRadAn=      0 IRanWt=     -1 IRanGd=            0 ICorTp=0 IEmpDi=131
 NAtoms=   36 NActive=   36 NUniq=   36 SFac= 1.00D+00 NAtFMM=   60 NAOKFM=F Big=F
 Integral buffers will be    131072 words long.
 Raffenetti 2 integral format.
 Two-electron integral symmetry is turned on.
 R6Disp:  Grimme-D3 Dispersion energy=       -0.0245204812 Hartrees.
 Nuclear repulsion after empirical dispersion term =     1435.9216913016 Hartrees.
 Leave Link  301 at Tue Oct 24 12:45:25 2017, MaxMem= 13421772800 cpu:         1.7
 (Enter /share/apps//g09/l302.exe)
 NPDir=0 NMtPBC=     1 NCelOv=     1 NCel=       1 NClECP=     1 NCelD=      1
         NCelK=      1 NCelE2=     1 NClLst=     1 CellRange=     0.0.
 One-electron integrals computed using PRISM.
 NBasis=   488 RedAO= T EigKep=  1.46D-06  NBF=   488
 NBsUse=   488 1.00D-06 EigRej= -1.00D+00 NBFU=   488
 Precomputing XC quadrature grid using
 IXCGrd= 4 IRadAn=           0 IRanWt=          -1 IRanGd=           0 AccXCQ= 0.00D+00.
 Generated NRdTot=       0 NPtTot=           0 NUsed=           0 NTot=          32
 NSgBfM=   502   502   502   502   502 MxSgAt=    36 MxSgA2=    36.
 Leave Link  302 at Tue Oct 24 12:45:27 2017, MaxMem= 13421772800 cpu:        15.3
 (Enter /share/apps//g09/l303.exe)
 DipDrv:  MaxL=1.
 Leave Link  303 at Tue Oct 24 12:45:27 2017, MaxMem= 13421772800 cpu:         5.6
 (Enter /share/apps//g09/l401.exe)
 ExpMin= 4.38D-02 ExpMax= 8.59D+03 ExpMxC= 1.30D+03 IAcc=2 IRadAn=         4 AccDes= 0.00D+00
 Harris functional with IExCor= 1009 and IRadAn=       4 diagonalized for initial guess.
 HarFok:  IExCor= 1009 AccDes= 0.00D+00 IRadAn=         4 IDoV= 1 UseB2=F ITyADJ=14
 ICtDFT=  3500011 ScaDFX=  1.000000  1.000000  1.000000  1.000000
 FoFCou: FMM=F IPFlag=           0 FMFlag=      100000 FMFlg1=           0
         NFxFlg=           0 DoJE=T BraDBF=F KetDBF=T FulRan=T
         wScrn=  0.000000 ICntrl=     500 IOpCl=  0 I1Cent=   200000004 NGrid=           0
         NMat0=    1 NMatS0=      1 NMatT0=    0 NMatD0=    1 NMtDS0=    0 NMtDT0=    0
 Petite list used in FoFCou.
 Harris En= -881.103034432513    
 JPrj=0 DoOrth=F DoCkMO=F.
 Leave Link  401 at Tue Oct 24 12:45:29 2017, MaxMem= 13421772800 cpu:        24.0
 (Enter /share/apps//g09/l502.exe)
 Closed shell SCF:
 Using DIIS extrapolation, IDIIS=  1040.
 Integral symmetry usage will be decided dynamically.
 Keep R1 ints in memory in canonical form, NReq=7183787934.
 IVT=      797493 IEndB=      797493 NGot= 13421772800 MDV=  6302761722
 LenX=  6302761722 LenY=  6302506192
 Requested convergence on RMS density matrix=1.00D-08 within 128 cycles.
 Requested convergence on MAX density matrix=1.00D-06.
 Requested convergence on             energy=1.00D-06.
 No special actions if energy rises.
 FoFCou: FMM=F IPFlag=           0 FMFlag=           0 FMFlg1=           0
         NFxFlg=           0 DoJE=F BraDBF=F KetDBF=F FulRan=T
         wScrn=  0.000000 ICntrl=     600 IOpCl=  0 I1Cent=           0 NGrid=           0
         NMat0=    1 NMatS0= 119316 NMatT0=    0 NMatD0=    1 NMtDS0=    0 NMtDT0=    0
 Symmetry not used in FoFCou.

 Cycle   1  Pass 1  IDiag  1:
 E= -880.652232026048    
 DIIS: error= 1.48D-02 at cycle   1 NSaved=   1.
 NSaved= 1 IEnMin= 1 EnMin= -880.652232026048     IErMin= 1 ErrMin= 1.48D-02
 ErrMax= 1.48D-02  0.00D+00 EMaxC= 1.00D-01 BMatC= 3.69D-01 BMatP= 3.69D-01
 IDIUse=3 WtCom= 8.52D-01 WtEn= 1.48D-01
 Coeff-Com:  0.100D+01
 Coeff-En:   0.100D+01
 Coeff:      0.100D+01
 Gap=     0.128 Goal=   None    Shift=    0.000
 GapD=    0.128 DampG=1.000 DampE=0.500 DampFc=0.5000 IDamp=-1.
 Damping current iteration by 5.00D-01
 RMSDP=1.11D-02 MaxDP=9.66D-01              OVMax= 1.17D-01

 Cycle   2  Pass 1  IDiag  1:
 E= -880.777303177136     Delta-E=       -0.125071151088 Rises=F Damp=T
 DIIS: error= 4.26D-03 at cycle   2 NSaved=   2.
 NSaved= 2 IEnMin= 2 EnMin= -880.777303177136     IErMin= 2 ErrMin= 4.26D-03
 ErrMax= 4.26D-03  0.00D+00 EMaxC= 1.00D-01 BMatC= 2.85D-02 BMatP= 3.69D-01
 IDIUse=3 WtCom= 9.57D-01 WtEn= 4.26D-02
 Coeff-Com: -0.164D-01 0.102D+01
 Coeff-En:   0.360D-01 0.964D+00
 Coeff:     -0.142D-01 0.101D+01
 Gap=     0.229 Goal=   None    Shift=    0.000
 RMSDP=6.28D-03 MaxDP=1.03D+00 DE=-1.25D-01 OVMax= 8.15D-02

 Cycle   3  Pass 1  IDiag  1:
 E= -880.910354103089     Delta-E=       -0.133050925952 Rises=F Damp=F
 DIIS: error= 5.38D-03 at cycle   3 NSaved=   3.
 NSaved= 3 IEnMin= 3 EnMin= -880.910354103089     IErMin= 2 ErrMin= 4.26D-03
 ErrMax= 5.38D-03  0.00D+00 EMaxC= 1.00D-01 BMatC= 1.88D-02 BMatP= 2.85D-02
 IDIUse=3 WtCom= 9.46D-01 WtEn= 5.38D-02
 Coeff-Com: -0.934D-01 0.468D+00 0.625D+00
 Coeff-En:   0.000D+00 0.000D+00 0.100D+01
 Coeff:     -0.884D-01 0.443D+00 0.645D+00
 Gap=     0.196 Goal=   None    Shift=    0.000
 RMSDP=1.50D-03 MaxDP=1.32D-01 DE=-1.33D-01 OVMax= 2.13D-02

 Cycle   4  Pass 1  IDiag  1:
 E= -880.921834835892     Delta-E=       -0.011480732804 Rises=F Damp=F
 DIIS: error= 2.42D-03 at cycle   4 NSaved=   4.
 NSaved= 4 IEnMin= 4 EnMin= -880.921834835892     IErMin= 4 ErrMin= 2.42D-03
 ErrMax= 2.42D-03  0.00D+00 EMaxC= 1.00D-01 BMatC= 3.79D-03 BMatP= 1.88D-02
 IDIUse=3 WtCom= 9.76D-01 WtEn= 2.42D-02
 Coeff-Com: -0.461D-01 0.150D+00 0.362D+00 0.534D+00
 Coeff-En:   0.000D+00 0.000D+00 0.135D+00 0.865D+00
 Coeff:     -0.450D-01 0.147D+00 0.357D+00 0.542D+00
 Gap=     0.199 Goal=   None    Shift=    0.000
 RMSDP=7.78D-04 MaxDP=1.44D-01 DE=-1.15D-02 OVMax= 6.70D-03

 Cycle   5  Pass 1  IDiag  1:
 E= -880.924557059587     Delta-E=       -0.002722223695 Rises=F Damp=F
 DIIS: error= 3.69D-04 at cycle   5 NSaved=   5.
 NSaved= 5 IEnMin= 5 EnMin= -880.924557059587     IErMin= 5 ErrMin= 3.69D-04
 ErrMax= 3.69D-04  0.00D+00 EMaxC= 1.00D-01 BMatC= 1.56D-04 BMatP= 3.79D-03
 IDIUse=3 WtCom= 9.96D-01 WtEn= 3.69D-03
 Coeff-Com: -0.145D-01 0.350D-01 0.121D+00 0.251D+00 0.607D+00
 Coeff-En:   0.000D+00 0.000D+00 0.000D+00 0.000D+00 0.100D+01
 Coeff:     -0.144D-01 0.349D-01 0.121D+00 0.250D+00 0.609D+00
 Gap=     0.200 Goal=   None    Shift=    0.000
 RMSDP=1.44D-04 MaxDP=1.85D-02 DE=-2.72D-03 OVMax= 1.91D-03

 Cycle   6  Pass 1  IDiag  1:
 E= -880.924635931944     Delta-E=       -0.000078872357 Rises=F Damp=F
 DIIS: error= 2.54D-04 at cycle   6 NSaved=   6.
 NSaved= 6 IEnMin= 6 EnMin= -880.924635931944     IErMin= 6 ErrMin= 2.54D-04
 ErrMax= 2.54D-04  0.00D+00 EMaxC= 1.00D-01 BMatC= 4.48D-05 BMatP= 1.56D-04
 IDIUse=3 WtCom= 9.97D-01 WtEn= 2.54D-03
 Coeff-Com: -0.573D-02 0.104D-01 0.494D-01 0.121D+00 0.409D+00 0.416D+00
 Coeff-En:   0.000D+00 0.000D+00 0.000D+00 0.000D+00 0.219D+00 0.781D+00
 Coeff:     -0.572D-02 0.104D-01 0.493D-01 0.121D+00 0.408D+00 0.417D+00
 Gap=     0.200 Goal=   None    Shift=    0.000
 RMSDP=7.79D-05 MaxDP=1.01D-02 DE=-7.89D-05 OVMax= 9.65D-04

 Cycle   7  Pass 1  IDiag  1:
 E= -880.924667833174     Delta-E=       -0.000031901230 Rises=F Damp=F
 DIIS: error= 3.36D-05 at cycle   7 NSaved=   7.
 NSaved= 7 IEnMin= 7 EnMin= -880.924667833174     IErMin= 7 ErrMin= 3.36D-05
 ErrMax= 3.36D-05  0.00D+00 EMaxC= 1.00D-01 BMatC= 1.31D-06 BMatP= 4.48D-05
 IDIUse=1 WtCom= 1.00D+00 WtEn= 0.00D+00
 Coeff-Com: -0.192D-02 0.291D-02 0.169D-01 0.457D-01 0.174D+00 0.220D+00
 Coeff-Com:  0.543D+00
 Coeff:     -0.192D-02 0.291D-02 0.169D-01 0.457D-01 0.174D+00 0.220D+00
 Coeff:      0.543D+00
 Gap=     0.200 Goal=   None    Shift=    0.000
 RMSDP=1.55D-05 MaxDP=2.43D-03 DE=-3.19D-05 OVMax= 1.68D-04

 Cycle   8  Pass 1  IDiag  1:
 E= -880.924668855315     Delta-E=       -0.000001022141 Rises=F Damp=F
 DIIS: error= 8.47D-06 at cycle   8 NSaved=   8.
 NSaved= 8 IEnMin= 8 EnMin= -880.924668855315     IErMin= 8 ErrMin= 8.47D-06
 ErrMax= 8.47D-06  0.00D+00 EMaxC= 1.00D-01 BMatC= 8.31D-08 BMatP= 1.31D-06
 IDIUse=1 WtCom= 1.00D+00 WtEn= 0.00D+00
 Coeff-Com:  0.264D-04-0.270D-03-0.224D-03 0.168D-02 0.125D-01 0.286D-01
 Coeff-Com:  0.220D+00 0.737D+00
 Coeff:      0.264D-04-0.270D-03-0.224D-03 0.168D-02 0.125D-01 0.286D-01
 Coeff:      0.220D+00 0.737D+00
 Gap=     0.200 Goal=   None    Shift=    0.000
 RMSDP=5.83D-06 MaxDP=9.92D-04 DE=-1.02D-06 OVMax= 3.84D-05

 Cycle   9  Pass 1  IDiag  1:
 E= -880.924668910167     Delta-E=       -0.000000054852 Rises=F Damp=F
 DIIS: error= 3.41D-06 at cycle   9 NSaved=   9.
 NSaved= 9 IEnMin= 9 EnMin= -880.924668910167     IErMin= 9 ErrMin= 3.41D-06
 ErrMax= 3.41D-06  0.00D+00 EMaxC= 1.00D-01 BMatC= 1.55D-08 BMatP= 8.31D-08
 IDIUse=1 WtCom= 1.00D+00 WtEn= 0.00D+00
 Coeff-Com:  0.818D-04-0.248D-03-0.824D-03-0.961D-03-0.104D-02 0.512D-02
 Coeff-Com:  0.945D-01 0.407D+00 0.496D+00
 Coeff:      0.818D-04-0.248D-03-0.824D-03-0.961D-03-0.104D-02 0.512D-02
 Coeff:      0.945D-01 0.407D+00 0.496D+00
 Gap=     0.200 Goal=   None    Shift=    0.000
 RMSDP=1.57D-06 MaxDP=1.90D-04 DE=-5.49D-08 OVMax= 1.59D-05

 Cycle  10  Pass 1  IDiag  1:
 E= -880.924668921363     Delta-E=       -0.000000011195 Rises=F Damp=F
 DIIS: error= 9.09D-07 at cycle  10 NSaved=  10.
 NSaved=10 IEnMin=10 EnMin= -880.924668921363     IErMin=10 ErrMin= 9.09D-07
 ErrMax= 9.09D-07  0.00D+00 EMaxC= 1.00D-01 BMatC= 8.02D-10 BMatP= 1.55D-08
 IDIUse=1 WtCom= 1.00D+00 WtEn= 0.00D+00
 Coeff-Com:  0.386D-04-0.844D-04-0.415D-03-0.767D-03-0.262D-02-0.198D-02
 Coeff-Com:  0.150D-01 0.869D-01 0.214D+00 0.690D+00
 Coeff:      0.386D-04-0.844D-04-0.415D-03-0.767D-03-0.262D-02-0.198D-02
 Coeff:      0.150D-01 0.869D-01 0.214D+00 0.690D+00
 Gap=     0.200 Goal=   None    Shift=    0.000
 RMSDP=4.87D-07 MaxDP=4.99D-05 DE=-1.12D-08 OVMax= 3.38D-06

 Cycle  11  Pass 1  IDiag  1:
 E= -880.924668922015     Delta-E=       -0.000000000653 Rises=F Damp=F
 DIIS: error= 2.20D-07 at cycle  11 NSaved=  11.
 NSaved=11 IEnMin=11 EnMin= -880.924668922015     IErMin=11 ErrMin= 2.20D-07
 ErrMax= 2.20D-07  0.00D+00 EMaxC= 1.00D-01 BMatC= 5.14D-11 BMatP= 8.02D-10
 IDIUse=1 WtCom= 1.00D+00 WtEn= 0.00D+00
 Coeff-Com:  0.114D-04-0.228D-04-0.136D-03-0.273D-03-0.104D-02-0.108D-02
 Coeff-Com:  0.183D-02 0.164D-01 0.642D-01 0.297D+00 0.623D+00
 Coeff:      0.114D-04-0.228D-04-0.136D-03-0.273D-03-0.104D-02-0.108D-02
 Coeff:      0.183D-02 0.164D-01 0.642D-01 0.297D+00 0.623D+00
 Gap=     0.200 Goal=   None    Shift=    0.000
 RMSDP=1.05D-07 MaxDP=1.32D-05 DE=-6.53D-10 OVMax= 1.22D-06

 Cycle  12  Pass 1  IDiag  1:
 E= -880.924668922033     Delta-E=       -0.000000000018 Rises=F Damp=F
 DIIS: error= 8.38D-08 at cycle  12 NSaved=  12.
 NSaved=12 IEnMin=12 EnMin= -880.924668922033     IErMin=12 ErrMin= 8.38D-08
 ErrMax= 8.38D-08  0.00D+00 EMaxC= 1.00D-01 BMatC= 7.71D-12 BMatP= 5.14D-11
 IDIUse=1 WtCom= 1.00D+00 WtEn= 0.00D+00
 Coeff-Com:  0.944D-06-0.931D-06-0.186D-04-0.437D-04-0.193D-03-0.273D-03
 Coeff-Com: -0.883D-03-0.245D-02 0.599D-02 0.651D-01 0.317D+00 0.616D+00
 Coeff:      0.944D-06-0.931D-06-0.186D-04-0.437D-04-0.193D-03-0.273D-03
 Coeff:     -0.883D-03-0.245D-02 0.599D-02 0.651D-01 0.317D+00 0.616D+00
 Gap=     0.200 Goal=   None    Shift=    0.000
 RMSDP=3.49D-08 MaxDP=4.50D-06 DE=-1.82D-11 OVMax= 4.29D-07

 Cycle  13  Pass 1  IDiag  1:
 E= -880.924668922037     Delta-E=       -0.000000000004 Rises=F Damp=F
 DIIS: error= 2.72D-08 at cycle  13 NSaved=  13.
 NSaved=13 IEnMin=13 EnMin= -880.924668922037     IErMin=13 ErrMin= 2.72D-08
 ErrMax= 2.72D-08  0.00D+00 EMaxC= 1.00D-01 BMatC= 5.49D-13 BMatP= 7.71D-12
 IDIUse=1 WtCom= 1.00D+00 WtEn= 0.00D+00
 Coeff-Com: -0.287D-06 0.101D-05-0.806D-07-0.285D-05-0.213D-04-0.461D-04
 Coeff-Com: -0.526D-03-0.209D-02-0.114D-02 0.958D-02 0.104D+00 0.286D+00
 Coeff-Com:  0.604D+00
 Coeff:     -0.287D-06 0.101D-05-0.806D-07-0.285D-05-0.213D-04-0.461D-04
 Coeff:     -0.526D-03-0.209D-02-0.114D-02 0.958D-02 0.104D+00 0.286D+00
 Coeff:      0.604D+00
 Gap=     0.200 Goal=   None    Shift=    0.000
 RMSDP=2.43D-08 MaxDP=3.70D-06 DE=-3.64D-12 OVMax= 1.16D-07

 Cycle  14  Pass 1  IDiag  1:
 E= -880.924668922040     Delta-E=       -0.000000000003 Rises=F Damp=F
 DIIS: error= 1.12D-08 at cycle  14 NSaved=  14.
 NSaved=14 IEnMin=14 EnMin= -880.924668922040     IErMin=14 ErrMin= 1.12D-08
 ErrMax= 1.12D-08  0.00D+00 EMaxC= 1.00D-01 BMatC= 9.67D-14 BMatP= 5.49D-13
 IDIUse=1 WtCom= 1.00D+00 WtEn= 0.00D+00
 Coeff-Com: -0.265D-06 0.664D-06 0.219D-05 0.348D-05 0.114D-04 0.785D-05
 Coeff-Com: -0.204D-03-0.934D-03-0.144D-02-0.313D-02 0.198D-01 0.845D-01
 Coeff-Com:  0.337D+00 0.564D+00
 Coeff:     -0.265D-06 0.664D-06 0.219D-05 0.348D-05 0.114D-04 0.785D-05
 Coeff:     -0.204D-03-0.934D-03-0.144D-02-0.313D-02 0.198D-01 0.845D-01
 Coeff:      0.337D+00 0.564D+00
 Gap=     0.200 Goal=   None    Shift=    0.000
 RMSDP=7.41D-09 MaxDP=1.24D-06 DE=-2.73D-12 OVMax= 3.37D-08

 Cycle  15  Pass 1  IDiag  1:
 E= -880.924668922024     Delta-E=        0.000000000015 Rises=F Damp=F
 DIIS: error= 1.53D-09 at cycle  15 NSaved=  15.
 NSaved=15 IEnMin=14 EnMin= -880.924668922040     IErMin=15 ErrMin= 1.53D-09
 ErrMax= 1.53D-09  0.00D+00 EMaxC= 1.00D-01 BMatC= 2.91D-15 BMatP= 9.67D-14
 IDIUse=1 WtCom= 1.00D+00 WtEn= 0.00D+00
 Coeff-Com: -0.603D-07 0.137D-06 0.718D-06 0.127D-05 0.534D-05 0.553D-05
 Coeff-Com: -0.281D-04-0.149D-03-0.390D-03-0.183D-02-0.918D-03 0.661D-02
 Coeff-Com:  0.729D-01 0.201D+00 0.723D+00
 Coeff:     -0.603D-07 0.137D-06 0.718D-06 0.127D-05 0.534D-05 0.553D-05
 Coeff:     -0.281D-04-0.149D-03-0.390D-03-0.183D-02-0.918D-03 0.661D-02
 Coeff:      0.729D-01 0.201D+00 0.723D+00
 Gap=     0.200 Goal=   None    Shift=    0.000
 RMSDP=6.51D-09 MaxDP=1.03D-06 DE= 1.55D-11 OVMax= 1.27D-08

 Cycle  16  Pass 1  IDiag  1:
 E= -880.924668922037     Delta-E=       -0.000000000013 Rises=F Damp=F
 DIIS: error= 7.55D-10 at cycle  16 NSaved=  16.
 NSaved=16 IEnMin=14 EnMin= -880.924668922040     IErMin=16 ErrMin= 7.55D-10
 ErrMax= 7.55D-10  0.00D+00 EMaxC= 1.00D-01 BMatC= 5.61D-16 BMatP= 2.91D-15
 IDIUse=1 WtCom= 1.00D+00 WtEn= 0.00D+00
 Large coefficients: NSaved= 16 BigCof=    0.00 CofMax=   10.00 Det=-3.09D-15
 Inversion failed.  Reducing to 15 matrices.
 Coeff-Com: -0.105D-08 0.108D-06 0.181D-06 0.120D-05 0.144D-05 0.971D-06
 Coeff-Com: -0.296D-05-0.775D-04-0.629D-03-0.162D-02-0.252D-02 0.138D-01
 Coeff-Com:  0.605D-01 0.380D+00 0.550D+00
 Coeff:     -0.105D-08 0.108D-06 0.181D-06 0.120D-05 0.144D-05 0.971D-06
 Coeff:     -0.296D-05-0.775D-04-0.629D-03-0.162D-02-0.252D-02 0.138D-01
 Coeff:      0.605D-01 0.380D+00 0.550D+00
 Gap=     0.200 Goal=   None    Shift=    0.000
 RMSDP=9.24D-09 MaxDP=1.69D-06 DE=-1.32D-11 OVMax= 3.32D-09

 Cycle  17  Pass 1  IDiag  1:
 E= -880.924668922029     Delta-E=        0.000000000009 Rises=F Damp=F
 DIIS: error= 2.66D-10 at cycle  17 NSaved=  16.
 NSaved=16 IEnMin=13 EnMin= -880.924668922040     IErMin=16 ErrMin= 2.66D-10
 ErrMax= 2.66D-10  0.00D+00 EMaxC= 1.00D-01 BMatC= 5.53D-17 BMatP= 5.61D-16
 IDIUse=1 WtCom= 1.00D+00 WtEn= 0.00D+00
 Large coefficients: NSaved= 16 BigCof=    0.00 CofMax=   10.00 Det=-6.34D-16
 Inversion failed.  Reducing to 15 matrices.
 Coeff-Com:  0.284D-07 0.610D-07 0.269D-06 0.274D-06 0.345D-05 0.106D-04
 Coeff-Com: -0.192D-05-0.950D-04-0.639D-03-0.200D-02-0.312D-02-0.669D-03
 Coeff-Com:  0.777D-01 0.267D+00 0.662D+00
 Coeff:      0.284D-07 0.610D-07 0.269D-06 0.274D-06 0.345D-05 0.106D-04
 Coeff:     -0.192D-05-0.950D-04-0.639D-03-0.200D-02-0.312D-02-0.669D-03
 Coeff:      0.777D-01 0.267D+00 0.662D+00
 Gap=     0.200 Goal=   None    Shift=    0.000
 RMSDP=6.67D-09 MaxDP=1.37D-06 DE= 8.64D-12 OVMax= 1.37D-09

 Cycle  18  Pass 1  IDiag  1:
 E= -880.924668922028     Delta-E=        0.000000000000 Rises=F Damp=F
 DIIS: error= 1.92D-10 at cycle  18 NSaved=  16.
 NSaved=16 IEnMin=12 EnMin= -880.924668922040     IErMin=16 ErrMin= 1.92D-10
 ErrMax= 1.92D-10  0.00D+00 EMaxC= 1.00D-01 BMatC= 6.45D-18 BMatP= 5.53D-17
 IDIUse=1 WtCom= 1.00D+00 WtEn= 0.00D+00
 Large coefficients: NSaved= 16 BigCof=    0.00 CofMax=   10.00 Det=-4.09D-17
 Inversion failed.  Reducing to 15 matrices.
 Coeff-Com:  0.444D-08-0.173D-07-0.439D-07 0.167D-05 0.592D-05 0.795D-05
 Coeff-Com:  0.178D-04-0.137D-03-0.699D-03-0.259D-02-0.508D-02 0.947D-02
 Coeff-Com:  0.877D-01 0.323D+00 0.588D+00
 Coeff:      0.444D-08-0.173D-07-0.439D-07 0.167D-05 0.592D-05 0.795D-05
 Coeff:      0.178D-04-0.137D-03-0.699D-03-0.259D-02-0.508D-02 0.947D-02
 Coeff:      0.877D-01 0.323D+00 0.588D+00
 Gap=     0.200 Goal=   None    Shift=    0.000
 RMSDP=7.04D-09 MaxDP=1.47D-06 DE= 4.55D-13 OVMax= 3.43D-10

 Cycle  19  Pass 1  IDiag  1:
 E= -880.924668922056     Delta-E=       -0.000000000027 Rises=F Damp=F
 DIIS: error= 2.14D-10 at cycle  19 NSaved=  16.
 NSaved=16 IEnMin=16 EnMin= -880.924668922056     IErMin=15 ErrMin= 1.92D-10
 ErrMax= 2.14D-10  0.00D+00 EMaxC= 1.00D-01 BMatC= 3.57D-18 BMatP= 6.45D-18
 IDIUse=1 WtCom= 1.00D+00 WtEn= 0.00D+00
 Large coefficients: NSaved= 16 BigCof=    0.00 CofMax=   10.00 Det=-1.20D-17
 Inversion failed.  Reducing to 15 matrices.
 Coeff-Com: -0.204D-07-0.444D-07 0.754D-06 0.259D-05 0.306D-05 0.488D-05
 Coeff-Com: -0.860D-04-0.403D-03-0.149D-02-0.298D-02 0.400D-02 0.440D-01
 Coeff-Com:  0.175D+00 0.370D+00 0.411D+00
 Coeff:     -0.204D-07-0.444D-07 0.754D-06 0.259D-05 0.306D-05 0.488D-05
 Coeff:     -0.860D-04-0.403D-03-0.149D-02-0.298D-02 0.400D-02 0.440D-01
 Coeff:      0.175D+00 0.370D+00 0.411D+00
 Gap=     0.200 Goal=   None    Shift=    0.000
 RMSDP=8.99D-09 MaxDP=1.52D-06 DE=-2.73D-11 OVMax= 2.36D-10

 Cycle  20  Pass 1  IDiag  1:
 E= -880.924668922033     Delta-E=        0.000000000023 Rises=F Damp=F
 DIIS: error= 1.06D-10 at cycle  20 NSaved=  16.
 NSaved=16 IEnMin=15 EnMin= -880.924668922056     IErMin=16 ErrMin= 1.06D-10
 ErrMax= 1.06D-10  0.00D+00 EMaxC= 1.00D-01 BMatC= 1.02D-18 BMatP= 3.57D-18
 IDIUse=1 WtCom= 1.00D+00 WtEn= 0.00D+00
 Large coefficients: NSaved= 16 BigCof=    0.00 CofMax=   10.00 Det=-4.02D-18
 Inversion failed.  Reducing to 15 matrices.
 Coeff-Com: -0.641D-08 0.496D-06 0.157D-05 0.135D-05-0.830D-06-0.555D-04
 Coeff-Com: -0.236D-03-0.801D-03-0.156D-02 0.285D-02 0.244D-01 0.101D+00
 Coeff-Com:  0.235D+00 0.270D+00 0.370D+00
 Coeff:     -0.641D-08 0.496D-06 0.157D-05 0.135D-05-0.830D-06-0.555D-04
 Coeff:     -0.236D-03-0.801D-03-0.156D-02 0.285D-02 0.244D-01 0.101D+00
 Coeff:      0.235D+00 0.270D+00 0.370D+00
 Gap=     0.200 Goal=   None    Shift=    0.000
 RMSDP=2.75D-09 MaxDP=5.18D-07 DE= 2.27D-11 OVMax= 1.26D-10

 SCF Done:  E(RPBE1PBE) =  -880.924668922     A.U. after   20 cycles
            NFock= 20  Conv=0.28D-08     -V/T= 2.0043
 KE= 8.771240064815D+02 PE=-4.914564069275D+03 EE= 1.720593702570D+03
 Leave Link  502 at Tue Oct 24 12:50:34 2017, MaxMem= 13421772800 cpu:      1236.1
 (Enter /share/apps//g09/l601.exe)
 Copying SCF densities to generalized density rwf, IOpCl= 0 IROHF=0.

 **********************************************************************

            Population analysis using the SCF density.

 **********************************************************************

 Orbital symmetries:
       Occupied  (A) (A) (A) (A) (A) (A) (A) (A) (A) (A) (A) (A)
                 (A) (A) (A) (A) (A) (A) (A) (A) (A) (A) (A) (A)
                 (A) (A) (A) (A) (A) (A) (A) (A) (A) (A) (A) (A)
                 (A) (A) (A) (A) (A) (A) (A) (A) (A) (A) (A) (A)
                 (A) (A) (A) (A) (A) (A) (A) (A) (A) (A) (A) (A)
                 (A) (A) (A) (A) (A) (A)
       Virtual   (A) (A) (A) (A) (A) (A) (A) (A) (A) (A) (A) (A)
                 (A) (A) (A) (A) (A) (A) (A) (A) (A) (A) (A) (A)
                 (A) (A) (A) (A) (A) (A) (A) (A) (A) (A) (A) (A)
                 (A) (A) (A) (A) (A) (A) (A) (A) (A) (A) (A) (A)
                 (A) (A) (A) (A) (A) (A) (A) (A) (A) (A) (A) (A)
                 (A) (A) (A) (A) (A) (A) (A) (A) (A) (A) (A) (A)
                 (A) (A) (A) (A) (A) (A) (A) (A) (A) (A) (A) (A)
                 (A) (A) (A) (A) (A) (A) (A) (A) (A) (A) (A) (A)
                 (A) (A) (A) (A) (A) (A) (A) (A) (A) (A) (A) (A)
                 (A) (A) (A) (A) (A) (A) (A) (A) (A) (A) (A) (A)
                 (A) (A) (A) (A) (A) (A) (A) (A) (A) (A) (A) (A)
                 (A) (A) (A) (A) (A) (A) (A) (A) (A) (A) (A) (A)
                 (A) (A) (A) (A) (A) (A) (A) (A) (A) (A) (A) (A)
                 (A) (A) (A) (A) (A) (A) (A) (A) (A) (A) (A) (A)
                 (A) (A) (A) (A) (A) (A) (A) (A) (A) (A) (A) (A)
                 (A) (A) (A) (A) (A) (A) (A) (A) (A) (A) (A) (A)
                 (A) (A) (A) (A) (A) (A) (A) (A) (A) (A) (A) (A)
                 (A) (A) (A) (A) (A) (A) (A) (A) (A) (A) (A) (A)
                 (A) (A) (A) (A) (A) (A) (A) (A) (A) (A) (A) (A)
                 (A) (A) (A) (A) (A) (A) (A) (A) (A) (A) (A) (A)
                 (A) (A) (A) (A) (A) (A) (A) (A) (A) (A) (A) (A)
                 (A) (A) (A) (A) (A) (A) (A) (A) (A) (A) (A) (A)
                 (A) (A) (A) (A) (A) (A) (A) (A) (A) (A) (A) (A)
                 (A) (A) (A) (A) (A) (A) (A) (A) (A) (A) (A) (A)
                 (A) (A) (A) (A) (A) (A) (A) (A) (A) (A) (A) (A)
                 (A) (A) (A) (A) (A) (A) (A) (A) (A) (A) (A) (A)
                 (A) (A) (A) (A) (A) (A) (A) (A) (A) (A) (A) (A)
                 (A) (A) (A) (A) (A) (A) (A) (A) (A) (A) (A) (A)
                 (A) (A) (A) (A) (A) (A) (A) (A) (A) (A) (A) (A)
                 (A) (A) (A) (A) (A) (A) (A) (A) (A) (A) (A) (A)
                 (A) (A) (A) (A) (A) (A) (A) (A) (A) (A) (A) (A)
                 (A) (A) (A) (A) (A) (A) (A) (A) (A) (A) (A) (A)
                 (A) (A) (A) (A) (A) (A) (A) (A) (A) (A) (A) (A)
                 (A) (A) (A) (A) (A) (A) (A) (A) (A) (A) (A) (A)
                 (A) (A) (A) (A) (A) (A) (A) (A) (A) (A) (A) (A)
                 (A) (A)
 The electronic state is 1-A.
 Alpha  occ. eigenvalues --  -19.44931 -19.44292 -19.40902 -19.36323 -19.36223
 Alpha  occ. eigenvalues --  -19.33496 -10.57100 -10.51537 -10.46355 -10.44619
 Alpha  occ. eigenvalues --  -10.44494 -10.44456 -10.40661 -10.39383 -10.39299
 Alpha  occ. eigenvalues --  -10.38821 -10.37324  -1.35133  -1.28056  -1.26071
 Alpha  occ. eigenvalues --   -1.22211  -1.21039  -1.18835  -1.01115  -0.97830
 Alpha  occ. eigenvalues --   -0.94755  -0.89363  -0.87491  -0.85597  -0.83097
 Alpha  occ. eigenvalues --   -0.81215  -0.78549  -0.77196  -0.76187  -0.72489
 Alpha  occ. eigenvalues --   -0.71053  -0.68132  -0.67075  -0.66539  -0.65988
 Alpha  occ. eigenvalues --   -0.63741  -0.63457  -0.62965  -0.61740  -0.61202
 Alpha  occ. eigenvalues --   -0.60195  -0.59344  -0.58472  -0.57839  -0.57348
 Alpha  occ. eigenvalues --   -0.56908  -0.56536  -0.55676  -0.54601  -0.53889
 Alpha  occ. eigenvalues --   -0.53654  -0.52219  -0.50609  -0.49343  -0.48472
 Alpha  occ. eigenvalues --   -0.48097  -0.47627  -0.45452  -0.43196  -0.41905
 Alpha  occ. eigenvalues --   -0.40050
 Alpha virt. eigenvalues --   -0.20023  -0.12479  -0.11735  -0.09958  -0.09374
 Alpha virt. eigenvalues --   -0.08573  -0.08201  -0.07404  -0.07232  -0.06563
 Alpha virt. eigenvalues --   -0.06038  -0.05935  -0.05638  -0.04936  -0.04654
 Alpha virt. eigenvalues --   -0.03941  -0.03672  -0.03104  -0.02672  -0.02291
 Alpha virt. eigenvalues --   -0.01909  -0.01713  -0.01124  -0.00794  -0.00209
 Alpha virt. eigenvalues --    0.00043   0.00180   0.00744   0.01278   0.01392
 Alpha virt. eigenvalues --    0.01514   0.02098   0.02304   0.02732   0.03227
 Alpha virt. eigenvalues --    0.03404   0.04062   0.04642   0.04985   0.05728
 Alpha virt. eigenvalues --    0.05959   0.06277   0.06464   0.06741   0.07121
 Alpha virt. eigenvalues --    0.07434   0.07707   0.08205   0.08612   0.08710
 Alpha virt. eigenvalues --    0.09057   0.09571   0.10144   0.10261   0.10840
 Alpha virt. eigenvalues --    0.10963   0.11609   0.11737   0.11937   0.12036
 Alpha virt. eigenvalues --    0.12490   0.13118   0.13492   0.13668   0.14177
 Alpha virt. eigenvalues --    0.14301   0.15271   0.15532   0.15989   0.16149
 Alpha virt. eigenvalues --    0.16577   0.17295   0.17701   0.18123   0.18387
 Alpha virt. eigenvalues --    0.19134   0.19460   0.20146   0.20674   0.21261
 Alpha virt. eigenvalues --    0.21536   0.21961   0.22261   0.22587   0.23433
 Alpha virt. eigenvalues --    0.24164   0.24579   0.24900   0.25395   0.25728
 Alpha virt. eigenvalues --    0.26395   0.26862   0.27413   0.28093   0.28761
 Alpha virt. eigenvalues --    0.29004   0.29698   0.30022   0.30378   0.31418
 Alpha virt. eigenvalues --    0.31755   0.32271   0.32886   0.33523   0.34567
 Alpha virt. eigenvalues --    0.34804   0.36178   0.36570   0.36831   0.37280
 Alpha virt. eigenvalues --    0.38689   0.39199   0.40431   0.41540   0.42837
 Alpha virt. eigenvalues --    0.43603   0.44114   0.44647   0.45661   0.45884
 Alpha virt. eigenvalues --    0.46115   0.46734   0.47517   0.48523   0.48965
 Alpha virt. eigenvalues --    0.49794   0.50865   0.51607   0.51684   0.53286
 Alpha virt. eigenvalues --    0.53425   0.54555   0.55097   0.56181   0.56344
 Alpha virt. eigenvalues --    0.57118   0.57675   0.57978   0.58405   0.59176
 Alpha virt. eigenvalues --    0.59687   0.60125   0.60617   0.61947   0.62170
 Alpha virt. eigenvalues --    0.62540   0.62695   0.63723   0.64432   0.65266
 Alpha virt. eigenvalues --    0.65490   0.66027   0.66875   0.68792   0.69216
 Alpha virt. eigenvalues --    0.71068   0.71969   0.76350   0.78860   0.79726
 Alpha virt. eigenvalues --    0.81495   0.84977   0.86567   0.87404   0.89303
 Alpha virt. eigenvalues --    0.90097   0.91743   0.92969   0.94705   0.95185
 Alpha virt. eigenvalues --    0.96381   0.96637   0.99377   1.00105   1.00638
 Alpha virt. eigenvalues --    1.02954   1.03084   1.04944   1.05706   1.07188
 Alpha virt. eigenvalues --    1.08655   1.09977   1.11342   1.11832   1.14847
 Alpha virt. eigenvalues --    1.15287   1.16225   1.17012   1.18697   1.20335
 Alpha virt. eigenvalues --    1.21486   1.22297   1.22511   1.24173   1.24534
 Alpha virt. eigenvalues --    1.24867   1.26098   1.27478   1.29425   1.29660
 Alpha virt. eigenvalues --    1.30913   1.31811   1.33751   1.33796   1.34841
 Alpha virt. eigenvalues --    1.34916   1.36114   1.38049   1.39294   1.39944
 Alpha virt. eigenvalues --    1.40794   1.42251   1.43025   1.43875   1.44284
 Alpha virt. eigenvalues --    1.45073   1.45359   1.46304   1.46529   1.46939
 Alpha virt. eigenvalues --    1.47347   1.48216   1.48573   1.49397   1.50951
 Alpha virt. eigenvalues --    1.51673   1.52620   1.53795   1.54890   1.55753
 Alpha virt. eigenvalues --    1.56080   1.57083   1.57767   1.58254   1.58768
 Alpha virt. eigenvalues --    1.59270   1.60548   1.60785   1.61927   1.62806
 Alpha virt. eigenvalues --    1.64349   1.64791   1.65685   1.67960   1.68300
 Alpha virt. eigenvalues --    1.69869   1.70381   1.70742   1.72880   1.75146
 Alpha virt. eigenvalues --    1.76071   1.77497   1.79127   1.79838   1.80661
 Alpha virt. eigenvalues --    1.81458   1.84242   1.85145   1.87872   1.88662
 Alpha virt. eigenvalues --    1.90181   1.91023   1.91771   1.92091   1.94165
 Alpha virt. eigenvalues --    1.95715   1.98671   2.00068   2.01040   2.01999
 Alpha virt. eigenvalues --    2.02862   2.04446   2.05227   2.06911   2.07983
 Alpha virt. eigenvalues --    2.08639   2.10418   2.11224   2.12150   2.13817
 Alpha virt. eigenvalues --    2.15883   2.17669   2.18611   2.20371   2.21163
 Alpha virt. eigenvalues --    2.22960   2.31999   2.33014   2.33355   2.34023
 Alpha virt. eigenvalues --    2.34224   2.37744   2.39232   2.39869   2.40380
 Alpha virt. eigenvalues --    2.40580   2.41026   2.42289   2.43140   2.43400
 Alpha virt. eigenvalues --    2.44130   2.44614   2.45153   2.46559   2.46991
 Alpha virt. eigenvalues --    2.47352   2.48979   2.49314   2.49705   2.53165
 Alpha virt. eigenvalues --    2.55372   2.55983   2.58818   2.60111   2.62546
 Alpha virt. eigenvalues --    2.63814   2.67184   2.68471   2.69508   2.70949
 Alpha virt. eigenvalues --    2.72265   2.73647   2.74060   2.76499   2.77287
 Alpha virt. eigenvalues --    2.79062   2.79251   2.83135   2.83379   2.86043
 Alpha virt. eigenvalues --    2.88834   2.89049   2.91820   2.92939   2.93351
 Alpha virt. eigenvalues --    2.94631   2.95425   2.96774   2.98343   2.99409
 Alpha virt. eigenvalues --    3.00531   3.01451   3.01926   3.05308   3.06027
 Alpha virt. eigenvalues --    3.07324   3.07676   3.09307   3.09711   3.11778
 Alpha virt. eigenvalues --    3.14317   3.15157   3.16212   3.20169   3.21624
 Alpha virt. eigenvalues --    3.24134   3.27888   3.31053   3.35626   3.38857
 Alpha virt. eigenvalues --    3.48981   3.61339   3.65714   3.67303   3.67783
 Alpha virt. eigenvalues --    3.68539   3.68624   3.69763   3.71109   3.72189
 Alpha virt. eigenvalues --    3.74346   3.77404   3.82209   3.86659   3.90222
 Alpha virt. eigenvalues --    3.93616   3.94253   3.95863   3.96863   4.01160
 Alpha virt. eigenvalues --    4.03255   4.07249   4.07924   4.09174   4.13223
 Alpha virt. eigenvalues --    4.18919   4.25046   4.94819   4.97877   5.02256
 Alpha virt. eigenvalues --    5.04465   5.04613   5.06197   5.13779   5.21205
 Alpha virt. eigenvalues --    5.26685   5.31066   5.31685   5.33607   5.46806
 Alpha virt. eigenvalues --    5.57090   5.59029   5.60260   5.64069   5.81227
 Alpha virt. eigenvalues --   23.68439  23.72540  23.76181  23.77560  23.80363
 Alpha virt. eigenvalues --   23.83776  23.88257  23.89461  23.89570  23.90661
 Alpha virt. eigenvalues --   23.91142  49.88778  49.90057  49.93970  49.95669
 Alpha virt. eigenvalues --   49.97724  50.01020
          Condensed to atoms (all electrons):
               1          2          3          4          5          6
     1  C   11.635715  -4.309329   0.255257  -1.093780  -0.934229   0.832904
     2  C   -4.309329  14.452743  -3.800620   1.366168   0.440684  -2.204204
     3  C    0.255257  -3.800620  16.630441  -9.140521   3.449922  -2.296737
     4  C   -1.093780   1.366168  -9.140521  20.712737  -9.696189   5.015073
     5  C   -0.934229   0.440684   3.449922  -9.696189  22.310640 -10.549171
     6  C    0.832904  -2.204204  -2.296737   5.015073 -10.549171  16.186587
     7  O   -0.298512   0.201317  -0.267283   0.287405  -0.171318   0.358813
     8  O    0.015923   0.062317   0.027238   0.011797  -0.058159  -0.063834
     9  O    0.063303  -0.166407  -0.075295   0.244558  -0.384880   0.423238
    10  O    0.164365  -0.003688  -0.065715   0.054071  -0.012285   0.025812
    11  H    0.418751  -0.087380   0.026817  -0.006632   0.008511  -0.005638
    12  H    0.271339   0.074146  -0.028446   0.019425  -0.012726   0.014609
    13  H   -0.013752   0.272184   0.012346  -0.013180   0.017239   0.008590
    14  H    0.015583  -0.099995   0.387409   0.022506   0.014150  -0.009208
    15  H    0.020366   0.011894   0.072697   0.363828  -0.170278   0.039618
    16  H    0.014246   0.010499   0.012703   0.024518   0.155029   0.100242
    17  H   -0.009972  -0.024650   0.054925  -0.067614   0.135543   0.264892
    18  O    0.059551   0.092307  -0.015054  -0.111519   0.049182   0.035517
    19  C   -0.325529   0.150261  -0.014503   0.016005   0.010572  -0.014823
    20  H    0.023931  -0.002618  -0.003917  -0.000190  -0.000456   0.000334
    21  H    0.019699  -0.028955   0.002504  -0.002214  -0.000065   0.000766
    22  H   -0.059745   0.060721  -0.007465   0.010010   0.001536  -0.000698
    23  C    0.008300  -0.012278   0.019592  -0.092884  -0.279754   0.090836
    24  H   -0.000474   0.004344   0.004387  -0.024498  -0.005110   0.013130
    25  H    0.000494  -0.000893  -0.003687   0.044550  -0.052292   0.009519
    26  H    0.000547  -0.000497  -0.001074  -0.000535   0.022977   0.001558
    27  C   -0.006328   0.007742  -0.236466  -0.128127   0.145378  -0.047414
    28  H    0.001218  -0.001841   0.052941  -0.035317  -0.020347  -0.003781
    29  H    0.000201   0.002921  -0.018823  -0.096799   0.070163   0.011966
    30  H   -0.000185   0.000258  -0.006802   0.069217  -0.014843   0.000307
    31  C   -0.064904   0.061000   0.122592  -0.659231   1.087597  -1.236169
    32  O    0.029675   0.197060   0.071443  -0.177831  -0.226226   0.295616
    33  C   -0.122966  -0.256824   0.623296  -0.345462   0.705882  -0.851724
    34  H    0.001014  -0.001848   0.002540  -0.002343  -0.007372   0.000988
    35  H    0.003378  -0.004212   0.000390  -0.000526  -0.002546   0.002045
    36  H   -0.000841   0.000380  -0.005873   0.002999   0.003609  -0.000318
               7          8          9         10         11         12
     1  C   -0.298512   0.015923   0.063303   0.164365   0.418751   0.271339
     2  C    0.201317   0.062317  -0.166407  -0.003688  -0.087380   0.074146
     3  C   -0.267283   0.027238  -0.075295  -0.065715   0.026817  -0.028446
     4  C    0.287405   0.011797   0.244558   0.054071  -0.006632   0.019425
     5  C   -0.171318  -0.058159  -0.384880  -0.012285   0.008511  -0.012726
     6  C    0.358813  -0.063834   0.423238   0.025812  -0.005638   0.014609
     7  O    7.864511  -0.003059   0.054101   0.019520   0.002590   0.011441
     8  O   -0.003059   7.983639   0.020315  -0.000269   0.000102  -0.000088
     9  O    0.054101   0.020315   7.877753   0.006096  -0.002203   0.018400
    10  O    0.019520  -0.000269   0.006096   7.931253  -0.029211  -0.054200
    11  H    0.002590   0.000102  -0.002203  -0.029211   0.479771  -0.024107
    12  H    0.011441  -0.000088   0.018400  -0.054200  -0.024107   0.479507
    13  H   -0.015083  -0.001766   0.012049  -0.004821  -0.008625   0.004316
    14  H    0.006374  -0.004117  -0.048144   0.011969   0.000233  -0.000713
    15  H   -0.000077  -0.032054   0.005619  -0.000085  -0.000024   0.000023
    16  H    0.007169   0.006040   0.003954   0.000021  -0.000006   0.000013
    17  H   -0.061654  -0.000191  -0.006250   0.000022   0.000052  -0.000038
    18  O    0.012446   0.006578   0.001225  -0.000248  -0.000122  -0.000013
    19  C   -0.008019  -0.000446  -0.003397   0.140813   0.001010   0.000371
    20  H    0.000156   0.000002   0.000018  -0.053733  -0.000233  -0.000109
    21  H    0.000647   0.000003   0.000016  -0.035207   0.007635   0.001272
    22  H   -0.001928  -0.000001   0.000071  -0.049947  -0.001791  -0.000966
    23  C    0.004566   0.008666   0.002526  -0.000032  -0.000367   0.000060
    24  H   -0.000088  -0.000151  -0.000104   0.000003   0.000006  -0.000000
    25  H    0.000297   0.000352   0.000061   0.000001   0.000000   0.000000
    26  H   -0.000402   0.000043   0.000008  -0.000000  -0.000000  -0.000000
    27  C    0.003750   0.115265   0.001905   0.000191   0.000011   0.000061
    28  H   -0.000016  -0.044684  -0.000159   0.000002  -0.000000  -0.000000
    29  H   -0.000127  -0.019637   0.000064  -0.000001   0.000000  -0.000000
    30  H   -0.000010  -0.074035  -0.000360  -0.000001   0.000000  -0.000000
    31  C   -0.004816   0.074837   0.290878  -0.008947   0.000674   0.008996
    32  O   -0.084530   0.031305  -0.109318  -0.001200   0.000418  -0.001680
    33  C   -0.012018  -0.099972  -0.468938  -0.004274  -0.001237  -0.008586
    34  H    0.000230  -0.001060  -0.002105   0.000010   0.000000  -0.000000
    35  H    0.000009   0.000624  -0.014041   0.000029  -0.000001   0.000012
    36  H   -0.000312   0.000142   0.016861  -0.000002  -0.000000  -0.000024
              13         14         15         16         17         18
     1  C   -0.013752   0.015583   0.020366   0.014246  -0.009972   0.059551
     2  C    0.272184  -0.099995   0.011894   0.010499  -0.024650   0.092307
     3  C    0.012346   0.387409   0.072697   0.012703   0.054925  -0.015054
     4  C   -0.013180   0.022506   0.363828   0.024518  -0.067614  -0.111519
     5  C    0.017239   0.014150  -0.170278   0.155029   0.135543   0.049182
     6  C    0.008590  -0.009208   0.039618   0.100242   0.264892   0.035517
     7  O   -0.015083   0.006374  -0.000077   0.007169  -0.061654   0.012446
     8  O   -0.001766  -0.004117  -0.032054   0.006040  -0.000191   0.006578
     9  O    0.012049  -0.048144   0.005619   0.003954  -0.006250   0.001225
    10  O   -0.004821   0.011969  -0.000085   0.000021   0.000022  -0.000248
    11  H   -0.008625   0.000233  -0.000024  -0.000006   0.000052  -0.000122
    12  H    0.004316  -0.000713   0.000023   0.000013  -0.000038  -0.000013
    13  H    0.444823   0.000010   0.000760  -0.000349   0.000390  -0.005914
    14  H    0.000010   0.388091  -0.006257  -0.000018   0.000070  -0.001313
    15  H    0.000760  -0.006257   0.428882   0.001516  -0.000197   0.004342
    16  H   -0.000349  -0.000018   0.001516   0.485669  -0.007378  -0.028025
    17  H    0.000390   0.000070  -0.000197  -0.007378   0.442836  -0.008948
[...]
 54788,0.00036863,0.00127018,-0.00155518,0.00003357,0.00001269,0.000153
 02,-0.00019279,-0.00029259,0.00010992,0.00001471,-0.00015163,0.0001162
 8,0.00042957,-0.00057652,-0.00037427,-0.00010186,-0.00054927,0.0001728
 6,0.00014562,0.00001724,0.00005857,-0.00015732,-0.00003177,-0.00006620
 ,-0.00348936,-0.00102093,0.00123022,0.00059258,-0.00009683,-0.00013493
 ,0.00117849,-0.00048619,-0.00006675,0.00040990,0.00028094,0.00006132,-
 0.03648950,0.02015211,0.78452673,-0.00012992,0.00002546,-0.00065747,0.
 00128057,-0.00135839,0.00047088,-0.00571502,0.00297529,-0.00484114,-0.
 00010880,0.00059722,0.00505501,0.00189981,0.03001089,-0.00947191,-0.06
 316431,0.00132557,0.00154166,0.00771640,-0.02475051,0.01410349,-0.0020
 2038,-0.00219478,-0.00377548,0.02319246,0.01682245,0.03081950,-0.00001
 453,-0.00024357,0.00043426,-0.00002467,-0.00003603,0.00007418,0.000293
 72,0.00007497,-0.00003645,-0.00059171,-0.00041815,0.00054118,0.0009689
 3,-0.00087028,0.00032846,0.00073107,0.00020989,-0.00020860,0.00129155,
 -0.00020618,0.00021466,0.00213525,0.00263336,-0.00145047,-0.00851693,0
 .00378630,-0.00686011,-0.00000742,0.00028587,-0.00033210,-0.00000110,0
 .00000880,0.00002489,-0.00001649,-0.00004871,0.00001796,0.00002819,-0.
 00005946,0.00000851,0.00041948,-0.00333674,-0.00224551,0.00043794,-0.0
 0011807,0.00060789,-0.00003585,0.00022120,0.00026958,-0.00010191,0.000
 35504,0.00023047,0.00064437,0.00017096,-0.00043449,-0.00032737,-0.0000
 1680,-0.00007382,0.00024955,-0.00009236,0.00002024,-0.00003497,0.00000
 633,0.00001684,-0.10377026,0.10044808,0.04272208,0.13697143,0.00247048
 ,-0.00081236,0.00069912,-0.00267600,-0.00884973,-0.01709962,0.00653037
 ,-0.01295355,0.01946427,-0.00251374,-0.00265937,-0.00486310,-0.0015812
 3,-0.02193054,0.00467037,0.02747531,-0.01731609,-0.03376870,-0.0400166
 3,-0.01901000,0.05384733,-0.00029205,0.00376247,-0.00104754,0.01426328
 ,-0.00256712,-0.07265551,-0.00079804,0.00130461,0.00168088,0.00050789,
 0.00041076,-0.00060681,-0.00086709,-0.00019439,-0.00021097,0.00155212,
 0.00283105,0.00290518,-0.00110910,0.00230040,-0.00091971,-0.00155095,0
 .00071523,0.00121619,0.00018280,0.00031388,0.00016844,0.01233290,-0.03
 624922,0.02077628,0.00774981,-0.00096150,0.00513734,0.00011492,0.00012
 307,0.00000629,-0.00004517,-0.00001201,0.00010538,0.00001030,-0.000003
 01,-0.00003821,-0.00011295,0.00009343,-0.00017937,-0.00123710,0.002455
 00,0.00170257,-0.00012069,0.00094727,-0.00027796,0.00005604,-0.0000716
 6,-0.00030074,0.00023613,-0.00008081,0.00012095,0.00122630,0.00013848,
 -0.00081221,-0.00029212,0.00002424,0.00002316,-0.00054671,0.00014150,0
 .00027128,0.00012598,0.00007900,0.00008339,0.10187790,-0.35356594,-0.0
 8989965,-0.14522936,0.51733431,-0.00051170,0.00013230,0.00079766,-0.00
 259525,0.00241851,0.00069182,0.00470331,-0.00667145,0.01001269,0.00222
 491,0.00030084,-0.00063348,-0.00796756,0.02015843,-0.00818975,-0.00208
 219,-0.00456639,-0.07918352,0.01311252,0.03127443,-0.02041714,-0.00228
 885,-0.00014640,0.00045078,0.02750803,-0.05918913,-0.05494787,0.000358
 09,0.00026528,-0.00087388,-0.00005599,0.00013701,-0.00017565,-0.000410
 39,-0.00011508,-0.00014103,0.00028415,0.00006160,-0.00068983,-0.000599
 56,0.00045707,0.00008354,-0.00023544,0.00045594,0.00108707,-0.00131923
 ,-0.00016698,0.00049452,0.00358031,-0.01320665,0.00924563,-0.00381533,
 0.00100191,0.00033740,-0.00014464,-0.00042279,0.00053295,0.00000340,-0
 .00001836,-0.00005934,0.00006173,0.00009423,-0.00002618,0.00001045,0.0
 0002659,0.00001990,-0.00031284,-0.00166015,-0.00121668,0.00047504,0.00
 031499,0.00017352,-0.00022475,0.00016563,0.00012824,0.00008998,0.00033
 864,0.00032586,0.00076267,-0.00001962,-0.00049999,-0.00016255,0.000029
 77,0.00008294,-0.00022739,0.00014778,-0.00000481,-0.00010448,-0.000084
 28,-0.00004340,0.04875572,-0.11133942,-0.18944466,-0.07081828,0.125317
 18,0.31795265,-0.00015341,0.00003386,-0.00014903,-0.00022073,0.0013747
 1,0.00002405,0.00389734,0.00369731,0.00000980,0.00034566,-0.00079971,0
 .00115886,-0.00033629,-0.00087057,0.00058702,0.00576379,-0.00021487,0.
 00419982,0.00135156,0.00087236,-0.00282979,-0.00000720,0.00015616,-0.0
 0028054,0.00979130,-0.00173858,0.00170082,0.00000641,-0.00005965,0.000
 07830,-0.00003379,-0.00000260,0.00002454,0.00003978,-0.00006688,-0.000
 01257,0.00005929,0.00004542,-0.00004417,0.00042525,-0.00059998,0.00037
 202,0.00031092,0.00001218,-0.00032305,-0.00009571,-0.00004757,-0.00011
 174,-0.00047366,0.00090538,-0.00056950,0.00043384,-0.00037695,0.000367
 53,0.00001268,0.00004103,-0.00004362,0.00000416,-0.00000335,0.00000545
 ,-0.00000429,-0.00000725,0.00000074,0.00000194,-0.00000545,0.00000441,
 -0.00006092,0.00023988,0.00012879,-0.00004081,-0.00004437,-0.00005313,
 0.00001212,-0.00001637,-0.00001473,-0.00000013,-0.00002823,-0.00002913
 ,-0.00003248,0.00004490,0.00001091,-0.00000864,-0.00001042,-0.00000985
 ,0.00001233,-0.00001437,0.00001956,0.00001883,0.00002419,0.00001375,-0
 .09806703,0.03461040,-0.02428883,0.00836597,0.01822692,-0.00875944,0.5
 4551057,0.00009784,-0.00002006,-0.00029368,-0.00061053,0.00002365,-0.0
 0189411,0.00268953,0.00403372,-0.00403371,0.00031032,-0.00134894,0.000
 76689,-0.00092391,-0.00091907,0.00005810,0.00256519,0.00887732,-0.0057
 0777,-0.00195236,-0.00045348,0.00244048,0.00015055,0.00058611,0.000132
 98,-0.00142528,0.00599505,0.00954292,-0.00012935,-0.00000107,0.0004720
 6,0.00002093,-0.00000900,0.00002695,0.00010915,-0.00001449,-0.00000003
 ,0.00021525,0.00023945,0.00022768,0.00003793,0.00012443,-0.00014467,0.
 00023718,-0.00006669,-0.00014920,-0.00006328,0.00002577,-0.00001521,0.
 00025189,-0.00049084,0.00039441,0.00096079,-0.00083700,0.00063405,0.00
 004804,0.00015893,-0.00016418,0.00000311,-0.00000545,0.00003352,-0.000
 01493,-0.00003026,0.00000018,-0.00000578,-0.00001268,-0.00000840,-0.00
 023680,0.00045944,0.00031164,-0.00000202,0.00003036,-0.00007268,0.0000
 1671,-0.00000963,-0.00005502,0.00002671,-0.00003843,0.00000310,-0.0004
 1435,-0.00009247,-0.00001048,0.00003497,-0.00002631,0.00002443,-0.0000
 0722,-0.00000016,0.00002588,0.00005818,0.00002308,-0.00000635,0.026965
 94,-0.16957233,0.06904791,0.01694415,-0.05048199,0.00920796,-0.0191400
 7,0.52393875,-0.00025570,0.00007516,0.00014756,-0.00111996,0.00005642,
 -0.00243720,0.00538187,-0.00259738,0.00244162,0.00045193,0.00015703,-0
 .00083335,-0.00055552,-0.00066595,-0.00031293,0.00157551,0.00107654,-0
 .00402104,-0.00161756,-0.00025686,0.00256411,-0.00025534,-0.00009438,0
 .00039999,-0.00970990,0.03358504,-0.04570252,0.00015778,0.00013145,-0.
 00010242,0.00009684,0.00002328,-0.00007217,-0.00004278,-0.00007921,-0.
 00000674,0.00046108,0.00056839,0.00021141,-0.00037374,0.00067673,-0.00
 044580,-0.00024626,0.00003834,0.00023129,-0.00000762,0.00010268,0.0000
 8130,0.00034753,-0.00085573,0.00053302,0.00031057,-0.00004794,0.000419
 37,-0.00003881,-0.00006971,0.00012528,-0.00000079,-0.00000686,-0.00000
 643,0.00002216,0.00002491,-0.00001062,0.00000936,-0.00000831,-0.000005
 47,-0.00002824,0.00001120,0.00002352,0.00000911,0.00006014,-0.00000684
 ,-0.00000832,0.00000271,0.00000126,0.00001331,0.00000909,0.00000965,0.
 00026523,0.00003108,-0.00001012,-0.00001065,0.00000199,0.00001294,-0.0
 0006525,0.00003991,0.00000250,-0.00004649,-0.00002534,-0.00001836,-0.0
 2252897,0.07556208,-0.13192229,0.00348476,-0.01867276,0.01357945,-0.00
 101398,0.04772554,0.60444885,-0.00007276,0.00000388,0.00004242,-0.0000
 6010,0.00000218,0.00011786,0.00001412,-0.00074789,0.00050098,0.0002256
 9,0.00048839,-0.00027640,0.00026005,0.00015463,-0.00005918,-0.00078724
 ,-0.00110348,0.00036120,0.00011648,0.00008578,-0.00016300,-0.00020480,
 -0.00037689,0.00024636,0.00007380,0.00035225,-0.00173550,0.00004556,0.
 00002487,-0.00009365,0.00000508,0.00000508,-0.00000907,-0.00003020,0.0
 0000528,-0.00001105,0.00002419,0.00003496,-0.00001578,-0.00006258,0.00
 005588,-0.00004057,-0.00010216,-0.00001134,0.00008234,0.00000116,0.000
 02379,0.00002856,-0.00001292,-0.00000075,-0.00002039,-0.00024750,0.000
 15235,-0.00013169,-0.00001053,-0.00004119,0.00004726,0.00000029,-0.000
 00090,-0.00000570,0.00000545,0.00000954,-0.00000247,0.00000163,0.00000
 267,0.00000155,0.00006309,-0.00008978,-0.00006197,-0.00000049,-0.00000
 412,0.00001175,-0.00000631,0.00000324,0.00001406,-0.00000362,0.0000067
 9,-0.00000032,0.00009571,0.00011751,-0.00006724,-0.00001754,-0.0000278
 1,0.00003230,-0.00001375,-0.00000188,-0.00001370,-0.00009647,-0.000044
 07,-0.00004525,0.00749878,0.00164190,0.00246178,-0.00213904,0.00336448
 ,0.00064648,-0.21539090,-0.12983880,-0.00359652,0.23306004,-0.00002595
 ,0.00001279,0.00008235,-0.00005239,0.00019914,-0.00016187,0.00070350,0
 .00006218,0.00058148,-0.00019774,-0.00045210,0.00023688,-0.00023519,-0
 .00045036,0.00012367,0.00167903,0.00008068,0.00035906,0.00004030,0.000
 25028,-0.00028671,-0.00033082,0.00026627,-0.00055818,0.00155876,0.0005
 3204,-0.00231766,0.00002404,0.00000833,-0.00008068,0.00000519,0.000005
 13,-0.00001428,-0.00001935,-0.00000980,-0.00000137,0.00002475,0.000032
 16,0.00001622,0.00005692,-0.00004616,0.00004984,0.00003779,0.00009883,
 -0.00008330,0.00002379,-0.00001206,-0.00003742,-0.00004646,0.00004756,
 -0.00003260,0.00019661,0.00004787,0.00014407,-0.00001193,-0.00002640,0
 .00003712,-0.00000064,0.00000020,-0.00000602,0.00000374,0.00000596,-0.
 00000082,0.00000206,0.00000089,-0.00000044,-0.00001839,0.00000904,0.00
 000305,-0.00000665,0.00000463,-0.00000565,0.00000593,-0.00000639,0.000
 00082,0.00000129,0.00000230,-0.00000591,0.00039478,0.00013537,-0.00003
 277,-0.00007886,0.00001786,-0.00004696,-0.00004909,-0.00001187,0.00002
 362,0.00001469,0.00003015,0.00004522,-0.02471427,-0.02168673,0.0016121
 8,0.00211754,-0.00064209,0.00127560,-0.13285143,-0.13532143,0.00144085
 ,0.14260713,0.15035549,0.00000676,-0.00000240,0.00008402,0.00005148,-0
 .00018621,0.00020311,-0.00099136,-0.00108332,0.00023386,0.00025895,0.0
 0064630,-0.00054116,0.00001342,0.00004175,0.00001554,-0.00038992,-0.00
 040999,0.00003281,0.00001777,0.00003423,-0.00002353,0.00019489,-0.0005
 3414,0.00016346,-0.00171233,0.00090290,-0.00228668,0.00001681,-0.00000
 430,-0.00007467,0.00000176,0.00000414,-0.00001504,-0.00003737,0.000006
 24,0.00000692,-0.00001113,-0.00000991,-0.00000880,-0.00011700,0.000181
 86,-0.00012115,-0.00014940,-0.00002863,0.00013881,0.00002264,0.0000125
 2,0.00002847,-0.00001166,-0.00001727,0.00001005,-0.00008595,0.00002529
 ,-0.00009359,-0.00000691,-0.00001948,0.00001902,0.00000089,0.00000313,
 -0.00000711,0.00000043,0.00000420,-0.00000155,0.00000194,0.00000116,0.
 00000122,0.00001749,-0.00003140,-0.00000156,0.00000012,-0.00000187,0.0
 0000550,0.00000255,0.00000291,0.00000493,0.00000061,0.00000029,-0.0000
 0283,-0.00022624,-0.00005236,0.00004674,0.00005079,0.00000790,0.000009
 10,0.00005724,-0.00005384,-0.00000929,-0.00007112,0.00001987,0.0000331
 1,0.01952474,0.00991155,-0.00116673,-0.00085724,0.00029756,0.00043979,
 -0.00265631,0.00326068,-0.04117436,0.00114095,-0.00280089,0.04240993,0
 .00006617,-0.00003779,0.00005772,0.00007477,0.00005807,0.00010374,0.00
 004839,0.00019105,-0.00040159,-0.00003730,-0.00005889,0.00014787,-0.00
 002530,-0.00001798,-0.00000990,0.00025482,-0.00049096,0.00037308,-0.00
 000638,0.00008452,-0.00015779,0.00001783,-0.00001367,-0.00014993,0.001
 11261,-0.00070673,0.00025723,-0.00004545,-0.00001359,-0.00002362,-0.00
 001321,-0.00000591,0.00000638,0.00001280,0.00002529,-0.00001428,-0.000
 04335,-0.00004056,-0.00000570,0.00002361,0.00000399,-0.00000227,0.0000
 4023,0.00001749,-0.00002412,0.00001516,-0.00001463,-0.00000691,-0.0000
 2407,0.00002921,-0.00004214,0.00001367,-0.00001604,-0.00000604,0.00000
 564,-0.00000173,-0.00000370,0.00000245,0.00000218,-0.00000315,-0.00000
 394,-0.00000550,0.00000159,-0.00000271,0.00000518,0.00000015,0.0000012
 2,0.00001451,0.00001135,-0.00000318,-0.00000125,-0.00000346,0.00000019
 ,-0.00000129,-0.00000053,0.00000052,-0.00000115,-0.00000013,0.00001505
 ,0.00000802,-0.00000002,-0.00001212,0.00000916,-0.00000899,0.00000617,
 -0.00001382,-0.00000017,0.00000026,0.00001031,0.00001893,-0.00622428,-
 0.00036077,0.00351959,0.00027202,0.00005567,-0.00040663,-0.20364731,0.
 11412571,0.08484505,-0.01797587,0.01389350,0.00960569,0.21845783,0.000
 14201,-0.00007614,0.00022877,-0.00007513,-0.00022005,-0.00036443,-0.00
 022916,-0.00068349,0.00078994,-0.00005897,0.00011431,-0.00035720,-0.00
 014263,-0.00021161,-0.00009003,0.00041070,0.00087393,-0.00143125,-0.00
 070635,-0.00007243,0.00085854,-0.00012792,0.00001290,-0.00004855,-0.00
 168777,0.00142842,-0.00279730,-0.00001056,0.00006105,-0.00016777,-0.00
 000267,0.00002324,-0.00003791,-0.00007924,0.00001175,0.00000344,0.0000
 3588,0.00007182,0.00003894,-0.00005325,0.00012136,-0.00005792,-0.00010
 674,0.00003975,0.00007675,0.00002097,0.00001521,0.00002259,0.00011867,
 -0.00026685,0.00017683,0.00009016,0.00002445,0.00009512,-0.00001946,-0
 .00006857,0.00007027,-0.00000191,0.00000384,-0.00001360,0.00000429,0.0
 0001027,-0.00000056,-0.00000132,0.00001197,-0.00000559,-0.00000194,-0.
 00001452,-0.00000045,0.00000294,0.00001835,0.00000116,-0.00000202,0.00
 000004,0.00000251,0.00000351,0.00000436,0.00000287,0.00012252,0.000010
 98,-0.00000190,-0.00001135,0.00001482,-0.00001095,-0.00001667,-0.00000
 103,0.00000359,-0.00000374,0.00000534,0.00001951,0.02221411,-0.0167575
 8,-0.01179531,0.00075026,-0.00541587,0.00412500,0.11096378,-0.11308666
 ,-0.05670426,-0.01516207,0.01094853,0.00773183,-0.12056733,0.12694374,
 -0.00010770,0.00005954,0.00002635,0.00008475,0.00015189,0.00031939,-0.
 00019625,-0.00023861,0.00050853,0.00000774,0.00015104,-0.00005171,0.00
 016860,-0.00007743,0.00006206,0.00040763,-0.00059604,0.00149045,0.0004
 2560,0.00010438,-0.00074911,-0.00005755,-0.00011286,-0.00008852,0.0011
 9976,0.00062297,-0.00214288,0.00003387,-0.00006580,-0.00004773,0.00001
 018,-0.00002288,0.00001042,0.00001891,0.00002450,0.00003171,-0.0000156
 6,-0.00003648,-0.00004010,-0.00000193,-0.00004569,0.00002481,-0.000030
 09,0.00002219,0.00000636,-0.00000045,0.00000346,-0.00001915,-0.0001149
 6,0.00028052,-0.00019618,-0.00009691,0.00009187,-0.00005310,-0.0000039
 3,0.00000790,-0.00001654,-0.00000006,0.00000299,-0.00000462,-0.0000012
 8,-0.00000081,0.00000240,0.00000720,-0.00001055,0.00000719,0.00004590,
 -0.00003166,-0.00002958,-0.00001104,-0.00000983,0.00000258,-0.00000316
 ,-0.00000079,0.00000626,-0.00000669,0.00000160,-0.00000330,0.00010190,
 0.00003529,-0.00002418,-0.00002402,0.00000591,-0.00000483,-0.00000710,
 0.00000186,-0.00000653,-0.00001273,-0.00000705,0.00000123,-0.01825005,
 0.00550726,0.01031833,-0.00011146,0.00541082,-0.00144822,0.08911918,-0
 .05887587,-0.09857344,-0.00049566,-0.00031718,-0.00098680,-0.09472773,
 0.06068520,0.09863239,-0.00000915,-0.00000467,0.00005576,-0.00009848,0
 .00003067,-0.00018824,0.00076813,-0.00000365,0.00026328,0.00003180,-0.
 00009891,0.00005415,0.00005583,-0.00002969,-0.00009990,0.00005442,0.00
 015037,-0.00012973,-0.00019122,-0.00005881,0.00020217,-0.00013564,0.00
 006724,0.00002288,0.00152664,0.00077616,-0.00109680,-0.00000620,0.0000
 0431,-0.00004647,0.00000583,-0.00000631,-0.00000089,-0.00001063,0.0000
 2622,0.00000391,0.00003233,0.00004892,0.00001597,-0.00000755,0.0000140
 0,0.00000271,0.00001401,0.00001107,-0.00001077,-0.00002360,0.00001212,
 0.00000249,0.00003813,0.00000024,0.00000743,-0.00004304,0.00002311,0.0
 0003751,-0.00000071,-0.00001451,0.00001219,0.00000044,0.00000098,-0.00
 000381,-0.00000019,0.00000106,0.00000094,0.00000063,0.00000126,0.00000
 036,0.00002998,-0.00001422,-0.00001651,0.00000027,0.00000557,-0.000000
 74,-0.00001041,0.00000081,0.00000202,-0.00000085,0.00000211,0.00000380
 ,0.00013590,0.00003107,-0.00004041,-0.00003094,0.00000002,0.00000543,-
 0.00003160,0.00002583,-0.00000594,0.00000319,-0.00001908,-0.00001352,-
 0.00488170,-0.00572634,-0.00356257,-0.00017805,0.00062930,0.00046570,-
 0.05779046,-0.01110538,-0.05590969,-0.00425631,-0.00475217,-0.02366396
 ,0.00762305,0.00418838,0.02264519,0.05738614,0.00008320,-0.00003037,-0
 .00002713,0.00031262,-0.00001684,0.00061240,-0.00119991,0.00020878,0.0
 0004183,-0.00022038,0.00000637,0.00014378,0.00007012,0.00015206,0.0000
 0850,-0.00033443,-0.00055892,0.00049145,0.00017927,0.00002351,-0.00050
 045,0.00007767,0.00008405,-0.00009916,0.00180931,-0.00487897,0.0060119
 0,-0.00004582,-0.00001652,0.00000347,-0.00002620,-0.00000602,0.0000203
 5,0.00000429,0.00002066,0.00000020,-0.00011983,-0.00014090,-0.00005564
 ,0.00010165,-0.00020825,0.00014566,0.00005784,-0.00000545,-0.00005109,
 0.00001476,-0.00001949,-0.00001584,0.00001232,-0.00000488,-0.00002334,
 -0.00005745,0.00001969,-0.00009706,0.00000801,0.00000480,-0.00001448,-
 0.00000039,0.00000052,0.00000067,-0.00000488,-0.00000388,0.00000323,-0
 .00000344,0.00000588,0.00000026,0.00000647,0.00000733,0.00000089,-0.00
 000558,-0.00001324,0.00000349,0.00000527,-0.00000209,0.00000042,-0.000
 00206,-0.00000172,-0.00000423,-0.00002481,-0.00000938,0.00000294,0.000
 00397,-0.00000226,-0.00000285,0.00000939,0.00000350,-0.00000214,0.0000
 2537,-0.00000171,-0.00000746,0.00647663,0.00980675,0.02686181,-0.00079
 024,0.00080254,-0.00009999,-0.01434978,-0.07167764,-0.08131587,-0.0016
 9161,-0.00448827,-0.01786028,-0.00616425,-0.00389563,-0.01272165,0.015
 78291,0.07483600,-0.00002863,0.00001826,-0.00002101,-0.00017362,0.0000
 1112,-0.00044658,0.00068100,-0.00038217,0.00047940,0.00006895,-0.00002
 918,-0.00015377,-0.00017673,-0.00023301,-0.00002032,0.00059197,0.00122
 323,-0.00040461,-0.00027742,-0.00010538,0.00046208,0.00001173,0.000016
 92,0.00009443,-0.00213041,0.00307247,-0.00216958,0.00001479,0.00001366
 ,0.00005509,0.00001533,0.00000610,-0.00001061,0.00000067,-0.00003033,-
 0.00000213,0.00008647,0.00006994,0.00006039,-0.00005051,0.00010687,-0.
 00007697,-0.00004232,0.00000011,0.00004146,-0.00000671,0.00001951,0.00
 001136,-0.00000309,-0.00000248,0.00002571,0.00016480,-0.00011704,0.000
 13892,0.00000144,0.00001444,-0.00000607,-0.00000009,-0.00000134,0.0000
 0373,0.00000140,0.00000033,-0.00000237,0.00000113,-0.00000380,-0.00000
 231,-0.00003000,0.00006015,0.00004541,-0.00000083,0.00000874,-0.000007
 45,0.00000266,-0.00000026,-0.00000684,0.00000422,-0.00000503,-0.000000
 36,-0.00003010,-0.00000471,-0.00000201,0.00000536,-0.00000071,0.000006
 18,-0.00000626,0.00000095,0.00000156,-0.00000694,0.00000053,-0.0000009
 4,-0.00238595,-0.00652694,-0.01719408,0.00118806,-0.00255111,0.0015589
 9,-0.05663614,-0.07290600,-0.29957101,0.00110926,0.00075868,0.00262848
 ,-0.00294956,-0.00104791,-0.00696391,0.06098605,0.07854539,0.32144978\
 \-0.00000170,-0.00000641,-0.00001281,0.00000181,0.00000825,0.00001087,
 -0.00000376,0.00000669,-0.00000978,-0.00000422,-0.00001391,0.00000529,
 -0.00000815,0.00000276,-0.00000145,0.00001111,0.00000057,-0.00000142,-
 0.00000615,-0.00000332,-0.00000440,-0.00000156,0.00000733,-0.00000205,
 0.00000539,-0.00000546,0.00000911,0.00000626,0.00000327,0.00000409,0.0
 0000208,0.00000163,0.00000100,-0.00000030,-0.00000071,0.00000179,-0.00
 000055,-0.00000109,-0.00000258,0.00000084,-0.00000355,0.00000183,-0.00
 000008,-0.00000010,-0.00000198,-0.00000042,0.00000118,-0.00000064,-0.0
 0000315,0.00000523,-0.00000173,0.00000350,0.00000420,-0.00000157,-0.00
 000280,-0.00001011,0.00000488,0.00000142,-0.00000439,-0.00000113,0.000
 00152,-0.00000082,-0.00000096,-0.00000070,-0.00000187,-0.00000277,-0.0
 0000195,-0.00000609,-0.00000841,-0.00000099,0.00000214,-0.00000230,-0.
 00000247,0.00000137,-0.00000227,-0.00000195,0.00000016,-0.00000554,0.0
 0000733,-0.00000210,0.00000229,-0.00000042,-0.00000220,-0.00000020,-0.
 00000115,0.00000062,0.00000076,-0.00000021,-0.00000134,0.00000283,0.00
 000230,-0.00000086,-0.00000420,-0.00000360,0.00000723,0.00000645,0.000
 00075,0.00000051,0.00000438,-0.00000001,0.00000315,0.00000464,0.000001
 21,0.00000290,0.00000407,0.00000077,0.00000514,0.00000390\\\@


 IMAGINATION WILL OFTEN CARRY US TO WORLDS THAT NEVER WERE.
 BUT WITHOUT IT, WE GO NOWHERE. -- CARL SAGAN (COSMOS)
 Job cpu time:       0 days  5 hours 30 minutes 27.0 seconds.
 File lengths (MBytes):  RWF=    766 Int=      0 D2E=      0 Chk=     19 Scr=      1
 Normal termination of Gaussian 09 at Tue Oct 24 14:53:55 2017.
