 Entering Gaussian System, Link 0=g09
 Initial command:
 /share/apps//g09/l1.exe "/scratch/Gau-30853.inp" -scrdir="/scratch/"
 Entering Link 1 = /share/apps//g09/l1.exe PID=     30854.
  
 Copyright (c) 1988,1990,1992,1993,1995,1998,2003,2009,2013,
            Gaussian, Inc.  All Rights Reserved.
  
 This is part of the Gaussian(R) 09 program.  It is based on
 the Gaussian(R) 03 system (copyright 2003, Gaussian, Inc.),
 the Gaussian(R) 98 system (copyright 1998, Gaussian, Inc.),
 the Gaussian(R) 94 system (copyright 1995, Gaussian, Inc.),
 the Gaussian 92(TM) system (copyright 1992, Gaussian, Inc.),
 the Gaussian 90(TM) system (copyright 1990, Gaussian, Inc.),
 the Gaussian 88(TM) system (copyright 1988, Gaussian, Inc.),
 the Gaussian 86(TM) system (copyright 1986, Carnegie Mellon
 University), and the Gaussian 82(TM) system (copyright 1983,
 Carnegie Mellon University). Gaussian is a federally registered
 trademark of Gaussian, Inc.
  
 This software contains proprietary and confidential information,
 including trade secrets, belonging to Gaussian, Inc.
  
 This software is provided under written license and may be
 used, copied, transmitted, or stored only in accord with that
 written license.
  
 The following legend is applicable only to US Government
 contracts under FAR:
  
                    RESTRICTED RIGHTS LEGEND
  
 Use, reproduction and disclosure by the US Government is
 subject to restrictions as set forth in subparagraphs (a)
 and (c) of the Commercial Computer Software - Restricted
 Rights clause in FAR 52.227-19.
  
 Gaussian, Inc.
 340 Quinnipiac St., Bldg. 40, Wallingford CT 06492
  
  
 ---------------------------------------------------------------
 Warning -- This program may not be used in any manner that
 competes with the business of Gaussian, Inc. or will provide
 assistance to any competitor of Gaussian, Inc.  The licensee
 of this program is prohibited from giving any competitor of
 Gaussian, Inc. access to this program.  By using this program,
 the user acknowledges that Gaussian, Inc. is engaged in the
 business of creating and licensing software in the field of
 computational chemistry and represents and warrants to the
 licensee that it is not a competitor of Gaussian, Inc. and that
 it will not use this program in any manner prohibited above.
 ---------------------------------------------------------------
  

 Cite this work as:
 Gaussian 09, Revision D.01,
 M. J. Frisch, G. W. Trucks, H. B. Schlegel, G. E. Scuseria, 
 M. A. Robb, J. R. Cheeseman, G. Scalmani, V. Barone, B. Mennucci, 
 G. A. Petersson, H. Nakatsuji, M. Caricato, X. Li, H. P. Hratchian, 
 A. F. Izmaylov, J. Bloino, G. Zheng, J. L. Sonnenberg, M. Hada, 
 M. Ehara, K. Toyota, R. Fukuda, J. Hasegawa, M. Ishida, T. Nakajima, 
 Y. Honda, O. Kitao, H. Nakai, T. Vreven, J. A. Montgomery, Jr., 
 J. E. Peralta, F. Ogliaro, M. Bearpark, J. J. Heyd, E. Brothers, 
 K. N. Kudin, V. N. Staroverov, T. Keith, R. Kobayashi, J. Normand, 
 K. Raghavachari, A. Rendell, J. C. Burant, S. S. Iyengar, J. Tomasi, 
 M. Cossi, N. Rega, J. M. Millam, M. Klene, J. E. Knox, J. B. Cross, 
 V. Bakken, C. Adamo, J. Jaramillo, R. Gomperts, R. E. Stratmann, 
 O. Yazyev, A. J. Austin, R. Cammi, C. Pomelli, J. W. Ochterski, 
 R. L. Martin, K. Morokuma, V. G. Zakrzewski, G. A. Voth, 
 P. Salvador, J. J. Dannenberg, S. Dapprich, A. D. Daniels, 
 O. Farkas, J. B. Foresman, J. V. Ortiz, J. Cioslowski, 
 and D. J. Fox, Gaussian, Inc., Wallingford CT, 2013.
 
 ******************************************
 Gaussian 09:  EM64L-G09RevD.01 24-Apr-2013
                 9-Jan-2017 
 ******************************************
 %nproc=20
 Will use up to   20 processors via shared memory.
 %mem=100GB
 %chk=Ac-4_cGalMe.chk
 -------------------------------------------------------------------
 #P PBE1PBE/6-311+G(d,p) opt optcyc=999 freq EmpiricalDispersion=GD3
 -------------------------------------------------------------------
 1/6=999,14=-1,18=20,19=15,26=3,38=1/1,3;
 2/9=110,12=2,17=6,18=5,40=1/2;
 3/5=4,6=6,7=111,11=2,16=1,25=1,30=1,71=1,74=-13,124=31/1,2,3;
 4//1;
 5/5=2,38=5/2;
 6/7=2,8=2,9=2,10=2,28=1/1;
 7//1,2,3,16;
 1/6=999,14=-1,18=20,19=15,26=3/3(2);
 2/9=110/2;
 99//99;
 2/9=110/2;
 3/5=4,6=6,7=111,11=2,16=1,25=1,30=1,71=1,74=-13,124=31/1,2,3;
 4/5=5,16=3,69=1/1;
 5/5=2,38=5/2;
 7//1,2,3,16;
 1/6=999,14=-1,18=20,19=15,26=3/3(-5);
 2/9=110/2;
 6/7=2,8=2,9=2,10=2,19=2,28=1/1;
 99/9=1/99;
 Leave Link    1 at Mon Jan  9 13:02:31 2017, MaxMem= 13421772800 cpu:         1.7
 (Enter /share/apps//g09/l101.exe)
 -------
 disacch
 -------
 Symbolic Z-matrix:
 Charge =  1 Multiplicity = 1
 C                    -1.12826  -1.43917   3.63449 
 C                    -0.08656  -0.99777   2.62015 
 C                     0.28567   0.48087   2.6161 
 C                     1.41693   0.78151   1.62012 
 C                     1.20727  -0.0336    0.30168 
 C                    -0.20221  -0.6212    0.26627 
 O                    -0.56862  -1.40386   1.29761 
 O                     1.45776   2.17968   1.43459 
 O                    -0.88909   1.3478    2.32253 
 O                    -2.32095  -0.70143   3.46431 
 H                    -0.7053   -1.30615   4.65095 
 H                    -1.30123  -2.52241   3.48603 
 H                     0.84118  -1.56219   2.82277 
 H                     0.5578    0.81528   3.62438 
 H                     2.34762   0.40559   2.08947 
 H                     1.32249   0.64395  -0.56372 
 H                    -0.45455  -1.12263  -0.67336 
 O                     2.05201  -1.16402   0.20819 
 C                    -3.37522  -1.18919   4.30335 
 H                    -4.25331  -0.56675   4.10071 
 H                    -3.61195  -2.24097   4.07019 
 H                    -3.10831  -1.10395   5.3703 
 C                     3.33684  -0.88575  -0.37146 
 H                     3.92736  -0.1935    0.25192 
 H                     3.85721  -1.84714  -0.42937 
 H                     3.2276   -0.4656   -1.38441 
 C                     2.72458   2.6681    0.96678 
 H                     3.52883   2.40911   1.67472 
 H                     2.97569   2.27629  -0.03286 
 H                     2.62749   3.75697   0.90732 
 C                    -1.46511   1.38254   1.16446 
 O                    -1.19054   0.6391    0.15526 
 C                    -2.5646    2.36628   1.02447 
 H                    -2.31288   3.29302   1.55127 
 H                    -3.45616   1.93395   1.50545 
 H                    -2.78528   2.54883  -0.03066 
 
 NAtoms=     36 NQM=       36 NQMF=       0 NMMI=      0 NMMIF=      0
                NMic=       0 NMicF=      0.
                    Isotopes and Nuclear Properties:
 (Nuclear quadrupole moments (NQMom) in fm**2, nuclear magnetic moments (NMagM)
  in nuclear magnetons)

  Atom         1           2           3           4           5           6           7           8           9          10
 IAtWgt=          12          12          12          12          12          12          16          16          16          16
 AtmWgt=  12.0000000  12.0000000  12.0000000  12.0000000  12.0000000  12.0000000  15.9949146  15.9949146  15.9949146  15.9949146
 NucSpn=           0           0           0           0           0           0           0           0           0           0
 AtZEff=   0.0000000   0.0000000   0.0000000   0.0000000   0.0000000   0.0000000   0.0000000   0.0000000   0.0000000   0.0000000
 NQMom=    0.0000000   0.0000000   0.0000000   0.0000000   0.0000000   0.0000000   0.0000000   0.0000000   0.0000000   0.0000000
 NMagM=    0.0000000   0.0000000   0.0000000   0.0000000   0.0000000   0.0000000   0.0000000   0.0000000   0.0000000   0.0000000
 AtZNuc=   6.0000000   6.0000000   6.0000000   6.0000000   6.0000000   6.0000000   8.0000000   8.0000000   8.0000000   8.0000000

  Atom        11          12          13          14          15          16          17          18          19          20
 IAtWgt=           1           1           1           1           1           1           1          16          12           1
 AtmWgt=   1.0078250   1.0078250   1.0078250   1.0078250   1.0078250   1.0078250   1.0078250  15.9949146  12.0000000   1.0078250
 NucSpn=           1           1           1           1           1           1           1           0           0           1
 AtZEff=   0.0000000   0.0000000   0.0000000   0.0000000   0.0000000   0.0000000   0.0000000   0.0000000   0.0000000   0.0000000
 NQMom=    0.0000000   0.0000000   0.0000000   0.0000000   0.0000000   0.0000000   0.0000000   0.0000000   0.0000000   0.0000000
 NMagM=    2.7928460   2.7928460   2.7928460   2.7928460   2.7928460   2.7928460   2.7928460   0.0000000   0.0000000   2.7928460
 AtZNuc=   1.0000000   1.0000000   1.0000000   1.0000000   1.0000000   1.0000000   1.0000000   8.0000000   6.0000000   1.0000000

  Atom        21          22          23          24          25          26          27          28          29          30
 IAtWgt=           1           1          12           1           1           1          12           1           1           1
 AtmWgt=   1.0078250   1.0078250  12.0000000   1.0078250   1.0078250   1.0078250  12.0000000   1.0078250   1.0078250   1.0078250
 NucSpn=           1           1           0           1           1           1           0           1           1           1
 AtZEff=   0.0000000   0.0000000   0.0000000   0.0000000   0.0000000   0.0000000   0.0000000   0.0000000   0.0000000   0.0000000
 NQMom=    0.0000000   0.0000000   0.0000000   0.0000000   0.0000000   0.0000000   0.0000000   0.0000000   0.0000000   0.0000000
 NMagM=    2.7928460   2.7928460   0.0000000   2.7928460   2.7928460   2.7928460   0.0000000   2.7928460   2.7928460   2.7928460
 AtZNuc=   1.0000000   1.0000000   6.0000000   1.0000000   1.0000000   1.0000000   6.0000000   1.0000000   1.0000000   1.0000000

  Atom        31          32          33          34          35          36
 IAtWgt=          12          16          12           1           1           1
 AtmWgt=  12.0000000  15.9949146  12.0000000   1.0078250   1.0078250   1.0078250
 NucSpn=           0           0           0           1           1           1
 AtZEff=   0.0000000   0.0000000   0.0000000   0.0000000   0.0000000   0.0000000
 NQMom=    0.0000000   0.0000000   0.0000000   0.0000000   0.0000000   0.0000000
 NMagM=    0.0000000   0.0000000   0.0000000   2.7928460   2.7928460   2.7928460
 AtZNuc=   6.0000000   8.0000000   6.0000000   1.0000000   1.0000000   1.0000000
 Leave Link  101 at Mon Jan  9 13:02:32 2017, MaxMem= 13421772800 cpu:         5.0
 (Enter /share/apps//g09/l103.exe)

 GradGradGradGradGradGradGradGradGradGradGradGradGradGradGradGradGradGrad
 Berny optimization.
 Initialization pass.
                           ----------------------------
                           !    Initial Parameters    !
                           ! (Angstroms and Degrees)  !
 --------------------------                            --------------------------
 ! Name  Definition              Value          Derivative Info.                !
 --------------------------------------------------------------------------------
 ! R1    R(1,2)                  1.5195         estimate D2E/DX2                !
 ! R2    R(1,10)                 1.4127         estimate D2E/DX2                !
 ! R3    R(1,11)                 1.109          estimate D2E/DX2                !
 ! R4    R(1,12)                 1.107          estimate D2E/DX2                !
 ! R5    R(2,3)                  1.5248         estimate D2E/DX2                !
 ! R6    R(2,7)                  1.4651         estimate D2E/DX2                !
 ! R7    R(2,13)                 1.1047         estimate D2E/DX2                !
 ! R8    R(3,4)                  1.5369         estimate D2E/DX2                !
 ! R9    R(3,9)                  1.4892         estimate D2E/DX2                !
 ! R10   R(3,14)                 1.0966         estimate D2E/DX2                !
 ! R11   R(4,5)                  1.5642         estimate D2E/DX2                !
 ! R12   R(4,8)                  1.411          estimate D2E/DX2                !
 ! R13   R(4,15)                 1.1081         estimate D2E/DX2                !
 ! R14   R(5,6)                  1.5275         estimate D2E/DX2                !
 ! R15   R(5,16)                 1.1051         estimate D2E/DX2                !
 ! R16   R(5,18)                 1.4143         estimate D2E/DX2                !
 ! R17   R(6,7)                  1.3455         estimate D2E/DX2                !
 ! R18   R(6,17)                 1.0945         estimate D2E/DX2                !
 ! R19   R(6,32)                 1.6055         estimate D2E/DX2                !
 ! R20   R(8,27)                 1.436          estimate D2E/DX2                !
 ! R21   R(9,31)                 1.2939         estimate D2E/DX2                !
 ! R22   R(10,19)                1.433          estimate D2E/DX2                !
 ! R23   R(18,23)                1.4367         estimate D2E/DX2                !
 ! R24   R(19,20)                1.0952         estimate D2E/DX2                !
 ! R25   R(19,21)                1.103          estimate D2E/DX2                !
 ! R26   R(19,22)                1.1031         estimate D2E/DX2                !
 ! R27   R(23,24)                1.103          estimate D2E/DX2                !
 ! R28   R(23,25)                1.0947         estimate D2E/DX2                !
 ! R29   R(23,26)                1.1021         estimate D2E/DX2                !
 ! R30   R(27,28)                1.1023         estimate D2E/DX2                !
 ! R31   R(27,29)                1.1027         estimate D2E/DX2                !
 ! R32   R(27,30)                1.0948         estimate D2E/DX2                !
 ! R33   R(31,32)                1.2832         estimate D2E/DX2                !
 ! R34   R(31,33)                1.482          estimate D2E/DX2                !
 ! R35   R(33,34)                1.0953         estimate D2E/DX2                !
 ! R36   R(33,35)                1.1014         estimate D2E/DX2                !
 ! R37   R(33,36)                1.0933         estimate D2E/DX2                !
 ! A1    A(2,1,10)             110.284          estimate D2E/DX2                !
 ! A2    A(2,1,11)             108.3943         estimate D2E/DX2                !
 ! A3    A(2,1,12)             107.5694         estimate D2E/DX2                !
 ! A4    A(10,1,11)            111.7021         estimate D2E/DX2                !
 ! A5    A(10,1,12)            111.2815         estimate D2E/DX2                !
 ! A6    A(11,1,12)            107.4519         estimate D2E/DX2                !
 ! A7    A(1,2,3)              116.7972         estimate D2E/DX2                !
 ! A8    A(1,2,7)              107.2486         estimate D2E/DX2                !
 ! A9    A(1,2,13)             107.7512         estimate D2E/DX2                !
 ! A10   A(3,2,7)              110.287          estimate D2E/DX2                !
 ! A11   A(3,2,13)             106.9144         estimate D2E/DX2                !
 ! A12   A(7,2,13)             107.4749         estimate D2E/DX2                !
 ! A13   A(2,3,4)              111.7836         estimate D2E/DX2                !
 ! A14   A(2,3,9)              111.868          estimate D2E/DX2                !
 ! A15   A(2,3,14)             110.7239         estimate D2E/DX2                !
 ! A16   A(4,3,9)              109.8166         estimate D2E/DX2                !
 ! A17   A(4,3,14)             110.7038         estimate D2E/DX2                !
 ! A18   A(9,3,14)             101.507          estimate D2E/DX2                !
 ! A19   A(3,4,5)              110.2205         estimate D2E/DX2                !
 ! A20   A(3,4,8)              107.478          estimate D2E/DX2                !
 ! A21   A(3,4,15)             106.1038         estimate D2E/DX2                !
 ! A22   A(5,4,8)              114.1681         estimate D2E/DX2                !
 ! A23   A(5,4,15)             107.0271         estimate D2E/DX2                !
 ! A24   A(8,4,15)             111.5654         estimate D2E/DX2                !
 ! A25   A(4,5,6)              110.1019         estimate D2E/DX2                !
 ! A26   A(4,5,16)             109.0621         estimate D2E/DX2                !
 ! A27   A(4,5,18)             113.0902         estimate D2E/DX2                !
 ! A28   A(6,5,16)             108.295          estimate D2E/DX2                !
 ! A29   A(6,5,18)             104.0132         estimate D2E/DX2                !
 ! A30   A(16,5,18)            112.0868         estimate D2E/DX2                !
 ! A31   A(5,6,7)              117.2113         estimate D2E/DX2                !
 ! A32   A(5,6,17)             114.134          estimate D2E/DX2                !
 ! A33   A(5,6,32)             105.5259         estimate D2E/DX2                !
 ! A34   A(7,6,17)             109.1931         estimate D2E/DX2                !
 ! A35   A(7,6,32)             109.9975         estimate D2E/DX2                !
 ! A36   A(17,6,32)             99.1109         estimate D2E/DX2                !
 ! A37   A(2,7,6)              116.1737         estimate D2E/DX2                !
 ! A38   A(4,8,27)             113.9148         estimate D2E/DX2                !
 ! A39   A(3,9,31)             122.9049         estimate D2E/DX2                !
 ! A40   A(1,10,19)            111.8918         estimate D2E/DX2                !
 ! A41   A(5,18,23)            113.954          estimate D2E/DX2                !
 ! A42   A(10,19,20)           106.743          estimate D2E/DX2                !
 ! A43   A(10,19,21)           111.0207         estimate D2E/DX2                !
 ! A44   A(10,19,22)           111.2236         estimate D2E/DX2                !
 ! A45   A(20,19,21)           109.3136         estimate D2E/DX2                !
 ! A46   A(20,19,22)           109.2096         estimate D2E/DX2                !
 ! A47   A(21,19,22)           109.2726         estimate D2E/DX2                !
 ! A48   A(18,23,24)           111.8589         estimate D2E/DX2                !
 ! A49   A(18,23,25)           106.0417         estimate D2E/DX2                !
 ! A50   A(18,23,26)           110.8562         estimate D2E/DX2                !
 ! A51   A(24,23,25)           109.0618         estimate D2E/DX2                !
 ! A52   A(24,23,26)           109.4681         estimate D2E/DX2                !
 ! A53   A(25,23,26)           109.4695         estimate D2E/DX2                !
 ! A54   A(8,27,28)            110.7629         estimate D2E/DX2                !
 ! A55   A(8,27,29)            112.0471         estimate D2E/DX2                !
 ! A56   A(8,27,30)            106.1248         estimate D2E/DX2                !
 ! A57   A(28,27,29)           109.4263         estimate D2E/DX2                !
 ! A58   A(28,27,30)           109.467          estimate D2E/DX2                !
 ! A59   A(29,27,30)           108.9271         estimate D2E/DX2                !
 ! A60   A(9,31,32)            126.378          estimate D2E/DX2                !
 ! A61   A(9,31,33)            115.6365         estimate D2E/DX2                !
 ! A62   A(32,31,33)           117.9725         estimate D2E/DX2                !
 ! A63   A(6,32,31)            122.1512         estimate D2E/DX2                !
 ! A64   A(31,33,34)           110.225          estimate D2E/DX2                !
 ! A65   A(31,33,35)           107.3821         estimate D2E/DX2                !
 ! A66   A(31,33,36)           110.5945         estimate D2E/DX2                !
 ! A67   A(34,33,35)           107.945          estimate D2E/DX2                !
 ! A68   A(34,33,36)           111.6709         estimate D2E/DX2                !
 ! A69   A(35,33,36)           108.8804         estimate D2E/DX2                !
 ! D1    D(10,1,2,3)            56.9244         estimate D2E/DX2                !
 ! D2    D(10,1,2,7)           -67.377          estimate D2E/DX2                !
 ! D3    D(10,1,2,13)          177.1846         estimate D2E/DX2                !
 ! D4    D(11,1,2,3)           -65.6477         estimate D2E/DX2                !
 ! D5    D(11,1,2,7)           170.0508         estimate D2E/DX2                !
 ! D6    D(11,1,2,13)           54.6124         estimate D2E/DX2                !
 ! D7    D(12,1,2,3)           178.4516         estimate D2E/DX2                !
 ! D8    D(12,1,2,7)            54.1502         estimate D2E/DX2                !
 ! D9    D(12,1,2,13)          -61.2882         estimate D2E/DX2                !
 ! D10   D(2,1,10,19)          173.5709         estimate D2E/DX2                !
 ! D11   D(11,1,10,19)         -65.8201         estimate D2E/DX2                !
 ! D12   D(12,1,10,19)          54.2744         estimate D2E/DX2                !
 ! D13   D(1,2,3,4)            175.8814         estimate D2E/DX2                !
 ! D14   D(1,2,3,9)            -60.4918         estimate D2E/DX2                !
 ! D15   D(1,2,3,14)            51.9456         estimate D2E/DX2                !
 ! D16   D(7,2,3,4)            -61.376          estimate D2E/DX2                !
 ! D17   D(7,2,3,9)             62.2508         estimate D2E/DX2                !
 ! D18   D(7,2,3,14)           174.6882         estimate D2E/DX2                !
 ! D19   D(13,2,3,4)            55.1775         estimate D2E/DX2                !
 ! D20   D(13,2,3,9)           178.8043         estimate D2E/DX2                !
 ! D21   D(13,2,3,14)          -68.7583         estimate D2E/DX2                !
 ! D22   D(1,2,7,6)            149.242          estimate D2E/DX2                !
 ! D23   D(3,2,7,6)             21.0678         estimate D2E/DX2                !
 ! D24   D(13,2,7,6)           -95.1359         estimate D2E/DX2                !
 ! D25   D(2,3,4,5)             40.3477         estimate D2E/DX2                !
 ! D26   D(2,3,4,8)            165.3356         estimate D2E/DX2                !
 ! D27   D(2,3,4,15)           -75.1924         estimate D2E/DX2                !
 ! D28   D(9,3,4,5)            -84.4284         estimate D2E/DX2                !
 ! D29   D(9,3,4,8)             40.5595         estimate D2E/DX2                !
 ! D30   D(9,3,4,15)           160.0315         estimate D2E/DX2                !
 ! D31   D(14,3,4,5)           164.2948         estimate D2E/DX2                !
 ! D32   D(14,3,4,8)           -70.7173         estimate D2E/DX2                !
 ! D33   D(14,3,4,15)           48.7547         estimate D2E/DX2                !
 ! D34   D(2,3,9,31)           -68.7334         estimate D2E/DX2                !
 ! D35   D(4,3,9,31)            55.9939         estimate D2E/DX2                !
 ! D36   D(14,3,9,31)          173.1785         estimate D2E/DX2                !
 ! D37   D(3,4,5,6)             13.1156         estimate D2E/DX2                !
 ! D38   D(3,4,5,16)           131.8093         estimate D2E/DX2                !
 ! D39   D(3,4,5,18)          -102.7551         estimate D2E/DX2                !
 ! D40   D(8,4,5,6)           -107.9557         estimate D2E/DX2                !
 ! D41   D(8,4,5,16)            10.738          estimate D2E/DX2                !
 ! D42   D(8,4,5,18)           136.1736         estimate D2E/DX2                !
 ! D43   D(15,4,5,6)           128.0733         estimate D2E/DX2                !
 ! D44   D(15,4,5,16)         -113.233          estimate D2E/DX2                !
 ! D45   D(15,4,5,18)           12.2026         estimate D2E/DX2                !
 ! D46   D(3,4,8,27)           157.4371         estimate D2E/DX2                !
 ! D47   D(5,4,8,27)           -79.9829         estimate D2E/DX2                !
 ! D48   D(15,4,8,27)           41.5155         estimate D2E/DX2                !
 ! D49   D(4,5,6,7)            -56.2805         estimate D2E/DX2                !
 ! D50   D(4,5,6,17)           174.2668         estimate D2E/DX2                !
 ! D51   D(4,5,6,32)            66.5356         estimate D2E/DX2                !
 ! D52   D(16,5,6,7)          -175.4435         estimate D2E/DX2                !
 ! D53   D(16,5,6,17)           55.1038         estimate D2E/DX2                !
 ! D54   D(16,5,6,32)          -52.6273         estimate D2E/DX2                !
 ! D55   D(18,5,6,7)            65.1705         estimate D2E/DX2                !
 ! D56   D(18,5,6,17)          -64.2822         estimate D2E/DX2                !
 ! D57   D(18,5,6,32)         -172.0133         estimate D2E/DX2                !
 ! D58   D(4,5,18,23)          -87.2757         estimate D2E/DX2                !
 ! D59   D(6,5,18,23)          153.2862         estimate D2E/DX2                !
 ! D60   D(16,5,18,23)          36.5146         estimate D2E/DX2                !
 ! D61   D(5,6,7,2)             37.5385         estimate D2E/DX2                !
 ! D62   D(17,6,7,2)           169.2822         estimate D2E/DX2                !
 ! D63   D(32,6,7,2)           -82.9534         estimate D2E/DX2                !
 ! D64   D(5,6,32,31)          -76.8124         estimate D2E/DX2                !
 ! D65   D(7,6,32,31)           50.4987         estimate D2E/DX2                !
 ! D66   D(17,6,32,31)         164.8719         estimate D2E/DX2                !
 ! D67   D(4,8,27,28)          -59.0305         estimate D2E/DX2                !
 ! D68   D(4,8,27,29)           63.4692         estimate D2E/DX2                !
 ! D69   D(4,8,27,30)         -177.7559         estimate D2E/DX2                !
 ! D70   D(3,9,31,32)            5.1513         estimate D2E/DX2                !
 ! D71   D(3,9,31,33)         -176.1923         estimate D2E/DX2                !
 ! D72   D(1,10,19,20)        -179.6633         estimate D2E/DX2                !
 ! D73   D(1,10,19,21)         -60.611          estimate D2E/DX2                !
 ! D74   D(1,10,19,22)          61.2969         estimate D2E/DX2                !
 ! D75   D(5,18,23,24)          64.1064         estimate D2E/DX2                !
 ! D76   D(5,18,23,25)        -177.1107         estimate D2E/DX2                !
 ! D77   D(5,18,23,26)         -58.3812         estimate D2E/DX2                !
 ! D78   D(9,31,32,6)            9.3214         estimate D2E/DX2                !
 ! D79   D(33,31,32,6)        -169.3071         estimate D2E/DX2                !
 ! D80   D(9,31,33,34)          38.763          estimate D2E/DX2                !
 ! D81   D(9,31,33,35)         -78.5849         estimate D2E/DX2                !
 ! D82   D(9,31,33,36)         162.7391         estimate D2E/DX2                !
 ! D83   D(32,31,33,34)       -142.4619         estimate D2E/DX2                !
 ! D84   D(32,31,33,35)        100.1902         estimate D2E/DX2                !
 ! D85   D(32,31,33,36)        -18.4857         estimate D2E/DX2                !
 --------------------------------------------------------------------------------
 Trust Radius=3.00D-01 FncErr=1.00D-07 GrdErr=1.00D-06
 Number of steps in this run=    216 maximum allowed number of steps=    216.
 GradGradGradGradGradGradGradGradGradGradGradGradGradGradGradGradGradGrad

 Leave Link  103 at Mon Jan  9 13:02:32 2017, MaxMem= 13421772800 cpu:         0.2
 (Enter /share/apps//g09/l202.exe)
                          Input orientation:                          
 ---------------------------------------------------------------------
 Center     Atomic      Atomic             Coordinates (Angstroms)
 Number     Number       Type             X           Y           Z
 ---------------------------------------------------------------------
      1          6           0       -1.128260   -1.439170    3.634490
      2          6           0       -0.086560   -0.997770    2.620150
      3          6           0        0.285670    0.480870    2.616100
      4          6           0        1.416930    0.781510    1.620120
      5          6           0        1.207270   -0.033600    0.301680
      6          6           0       -0.202210   -0.621200    0.266270
      7          8           0       -0.568620   -1.403860    1.297610
      8          8           0        1.457760    2.179680    1.434590
      9          8           0       -0.889090    1.347800    2.322530
     10          8           0       -2.320950   -0.701430    3.464310
     11          1           0       -0.705300   -1.306150    4.650950
     12          1           0       -1.301230   -2.522410    3.486030
     13          1           0        0.841180   -1.562190    2.822770
     14          1           0        0.557800    0.815280    3.624380
     15          1           0        2.347620    0.405590    2.089470
     16          1           0        1.322490    0.643950   -0.563720
     17          1           0       -0.454550   -1.122630   -0.673360
     18          8           0        2.052010   -1.164020    0.208190
     19          6           0       -3.375220   -1.189190    4.303350
     20          1           0       -4.253310   -0.566750    4.100710
     21          1           0       -3.611950   -2.240970    4.070190
     22          1           0       -3.108310   -1.103950    5.370300
     23          6           0        3.336840   -0.885750   -0.371460
     24          1           0        3.927360   -0.193500    0.251920
     25          1           0        3.857210   -1.847140   -0.429370
     26          1           0        3.227600   -0.465600   -1.384410
     27          6           0        2.724580    2.668100    0.966780
     28          1           0        3.528830    2.409110    1.674720
     29          1           0        2.975690    2.276290   -0.032860
     30          1           0        2.627490    3.756970    0.907320
     31          6           0       -1.465110    1.382540    1.164460
     32          8           0       -1.190540    0.639100    0.155260
     33          6           0       -2.564600    2.366280    1.024470
     34          1           0       -2.312880    3.293020    1.551270
     35          1           0       -3.456160    1.933950    1.505450
     36          1           0       -2.785280    2.548830   -0.030660
 ---------------------------------------------------------------------
                    Distance matrix (angstroms):
                    1          2          3          4          5
     1  C    0.000000
     2  C    1.519493   0.000000
     3  C    2.592850   1.524778   0.000000
     4  C    3.932823   2.535030   1.536916   0.000000
     5  C    4.305572   2.824699   2.543731   1.564176   0.000000
     6  C    3.587694   2.386615   2.640887   2.534190   1.527469
     7  O    2.403217   1.465061   2.453657   2.970230   2.454236
     8  O    4.962170   3.726482   2.378175   1.411017   2.498968
     9  O    3.089602   2.496864   1.489232   2.476246   3.222860
    10  O    1.412703   2.406849   2.985257   4.424013   4.785035
    11  H    1.108955   2.145247   2.883761   4.248307   4.918684
    12  H    1.106963   2.133002   3.506383   4.667537   4.756767
    13  H    2.133710   1.104684   2.127298   2.696439   2.970943
    14  H    2.815217   2.170444   1.096592   2.180895   3.490379
    15  H    4.227525   2.859418   2.129470   1.108056   2.165521
    16  H    5.288717   3.849376   3.348559   2.190205   1.105109
    17  H    4.371688   3.316356   3.733589   3.519693   2.213218
    18  O    4.682879   3.227797   3.409348   2.486355   1.414276
    19  C    2.357688   3.699336   4.363259   5.835074   6.192573
    20  H    3.277867   4.442932   4.889163   6.334252   6.673441
    21  H    2.646022   4.009556   4.971341   6.358291   6.503771
    22  H    2.654432   4.087245   4.649341   6.172245   6.742462
    23  C    6.024203   4.547741   4.483615   3.229892   2.390470
    24  H    6.209087   4.729368   4.393863   3.020741   2.725240
    25  H    6.444867   5.057106   5.239314   4.131002   3.293257
    26  H    6.716451   5.225262   5.055179   3.723038   2.666694
    27  C    6.231430   4.906602   3.667767   2.386634   3.169191
    28  H    6.351255   5.056848   3.888752   2.666868   3.638916
    29  H    6.640520   5.209156   4.180518   2.719640   2.928279
    30  H    6.967280   5.736498   4.374572   3.290426   4.092951
    31  C    3.765178   3.112123   2.446528   2.979097   3.145069
    32  O    4.053163   3.158132   2.874016   2.994160   2.494686
    33  C    4.832880   4.472551   3.769893   4.326532   4.528670
    34  H    5.304409   4.950746   3.974231   4.497100   5.001933
    35  H    4.618427   4.603449   4.164886   5.008820   5.202681
    36  H    5.664202   5.185389   4.551102   4.848408   4.766534
                    6          7          8          9         10
     6  C    0.000000
     7  O    1.345539   0.000000
     8  O    3.459104   4.119070   0.000000
     9  O    2.928647   2.953776   2.643514   0.000000
    10  O    3.837050   2.873788   5.167128   2.748314   0.000000
    11  H    4.466282   3.357546   5.212946   3.535360   2.093830
    12  H    3.897345   2.564577   5.824953   4.062280   2.087168
    13  H    2.917159   2.082959   4.038416   3.422297   3.339393
    14  H    3.730683   3.406943   2.732525   2.017890   3.257796
    15  H    3.298483   3.522159   2.090003   3.379108   4.991115
    16  H    2.148068   3.351772   2.523887   3.703637   5.595510
    17  H    1.094537   1.994198   4.359545   3.907327   4.558637
    18  O    2.319382   2.848168   3.610751   4.407918   5.471662
    19  C    5.166103   4.117956   6.552615   4.067039   1.432963
    20  H    5.578289   4.704792   6.875129   4.259742   2.038911
    21  H    5.359085   4.201168   7.224299   4.831930   2.098560
    22  H    5.893181   4.809031   6.864476   4.497212   2.101132
    23  C    3.605768   4.278651   4.023633   5.486785   6.837960
    24  H    4.151684   4.772030   3.623481   5.464542   7.044063
    25  H    4.297178   4.771470   5.044501   6.348855   7.392094
    26  H    3.809534   4.741819   4.251659   5.828976   7.372388
    27  C    4.458285   5.247425   1.436048   4.079199   6.561156
    28  H    5.008709   5.609817   2.097530   4.589559   6.862800
    29  H    4.310914   5.279753   2.113493   4.620225   7.010807
    30  H    5.252287   6.082895   2.033255   4.491465   7.134605
    31  C    2.533108   2.930094   3.041640   1.293883   3.219426
    32  O    1.605452   2.421866   3.320175   2.300041   3.744951
    33  C    3.883399   4.274634   4.047518   2.351509   3.927216
    34  H    4.628960   5.016719   3.933302   2.530988   4.428930
    35  H    4.318860   4.418378   4.920571   2.756998   3.474343
    36  H    4.099940   4.722461   4.504067   3.252001   4.795269
                   11         12         13         14         15
    11  H    0.000000
    12  H    1.786466   0.000000
    13  H    2.408194   2.439643   0.000000
    14  H    2.673898   3.822997   2.524925   0.000000
    15  H    4.337229   4.882384   2.584424   2.393167   0.000000
    16  H    5.925167   5.771500   4.070261   4.260785   2.854317
    17  H    5.333370   4.469539   3.754338   4.821920   4.221474
    18  O    5.230782   4.881975   2.908724   4.221451   2.467848
    19  C    2.694991   2.597484   4.484337   4.466268   6.339991
    20  H    3.665768   3.594053   5.345826   5.028288   6.968702
    21  H    3.108019   2.399975   4.674095   5.189049   6.814984
    22  H    2.516507   2.971202   4.722114   4.491330   6.542914
    23  C    6.460668   6.250646   4.109622   5.155900   2.949965
    24  H    6.484674   6.574302   4.243476   4.872890   2.496213
    25  H    6.849731   6.511210   4.444553   5.865789   3.701109
    26  H    7.252572   6.961462   4.959624   5.818631   3.687978
    27  C    6.413412   7.035280   4.988712   3.897527   2.553719
    28  H    6.370946   7.136541   4.930792   3.894674   2.362492
    29  H    6.951377   7.328175   5.238767   4.621271   2.897978
    30  H    7.124426   7.843163   5.929023   4.507724   3.564766
    31  C    4.467883   4.545897   4.091503   3.234989   4.043140
    32  O    4.922467   4.593629   4.011131   3.888769   4.039093
    33  C    5.485900   5.617354   5.501463   4.349082   5.395223
    34  H    5.774486   6.211760   5.927721   4.321780   5.508827
    35  H    5.287688   5.331563   5.694336   4.674737   6.029994
    36  H    6.411292   6.347203   6.180110   5.247923   5.952738
                   16         17         18         19         20
    16  H    0.000000
    17  H    2.508126   0.000000
    18  O    2.096855   2.657383   0.000000
    19  C    7.008370   5.770822   6.798955   0.000000
    20  H    7.369684   6.126281   7.434077   1.095234   0.000000
    21  H    7.358300   5.806989   6.939403   1.103017   1.793122
    22  H    7.609188   6.600653   7.299308   1.103127   1.792057
    23  C    2.536642   3.810760   1.436738   8.185211   8.815466
    24  H    2.855160   4.573900   2.112051   8.410301   9.048528
    25  H    3.556457   4.379009   2.032703   8.668309   9.377716
    26  H    2.352462   3.807297   2.099090   8.744794   9.276895
    27  C    2.899219   5.212155   3.963957   7.951034   8.305222
    28  H    3.604766   5.818418   4.135090   8.217260   8.677723
    29  H    2.383153   4.871288   3.570297   8.434828   8.799302
    30  H    3.682102   5.983980   5.003609   8.487052   8.731420
    31  C    3.361969   3.267215   4.446297   4.484969   4.493924
    32  O    2.613862   2.081342   3.710549   5.032109   5.138211
    33  C    4.538528   4.416722   5.868766   4.904032   4.573583
    34  H    4.970580   5.282077   6.381327   5.365885   5.016247
    35  H    5.364798   4.806200   6.451375   4.193900   3.691114
    36  H    4.559221   4.396019   6.102596   5.753648   5.378677
                   21         22         23         24         25
    21  H    0.000000
    22  H    1.799098   0.000000
    23  C    8.357665   8.634546   0.000000
    24  H    8.695546   8.747993   1.102963   0.000000
    25  H    8.728659   9.094337   1.094719   1.789861   0.000000
    26  H    8.926592   9.283176   1.102056   1.800355   1.793645
    27  C    8.595448   8.224473   3.846505   3.185351   4.859987
    28  H    8.851681   8.369619   3.883274   2.992785   4.759274
    29  H    8.979847   8.811085   3.200559   2.662074   4.235206
    30  H    9.214643   8.743348   4.867577   4.210157   5.891095
    31  C    5.116836   5.154787   5.528374   5.691693   6.426369
    32  O    5.429982   5.823462   4.806222   5.186084   5.657116
    33  C    5.621397   5.587876   6.881229   7.021029   7.817046
    34  H    6.217523   5.878014   7.285489   7.265310   8.271287
    35  H    4.902257   4.928174   7.590675   7.785483   8.457278
    36  H    6.359445   6.528209   7.028004   7.256705   7.975349
                   26         27         28         29         30
    26  H    0.000000
    27  C    3.949835   0.000000
    28  H    4.208678   1.102303   0.000000
    29  H    3.067264   1.102657   1.799843   0.000000
    30  H    4.841720   1.094806   1.793891   1.788182   0.000000
    31  C    5.651008   4.386940   5.123831   4.685410   4.738503
    32  O    4.807380   4.483701   5.264423   4.480318   4.986388
    33  C    6.882720   5.298099   6.128177   5.640998   5.376387
    34  H    7.310428   5.109614   5.909493   5.613571   5.003716
    35  H    7.666928   6.247455   7.003179   6.622106   6.379025
    36  H    6.861061   5.600685   6.541852   5.767413   5.624721
                   31         32         33         34         35
    31  C    0.000000
    32  O    1.283190   0.000000
    33  C    1.481965   2.372070   0.000000
    34  H    2.125622   3.201840   1.095321   0.000000
    35  H    2.093945   2.938143   1.101422   1.776587   0.000000
    36  H    2.128707   2.494961   1.093309   1.810934   1.785439
                   36
    36  H    0.000000
 Stoichiometry    C11H19O6(1+)
 Framework group  C1[X(C11H19O6)]
 Deg. of freedom   102
 Full point group                 C1      NOp   1
 Largest Abelian subgroup         C1      NOp   1
 Largest concise Abelian subgroup C1      NOp   1
                         Standard orientation:                         
 ---------------------------------------------------------------------
 Center     Atomic      Atomic             Coordinates (Angstroms)
 Number     Number       Type             X           Y           Z
 ---------------------------------------------------------------------
      1          6           0        2.237786   -1.516010   -0.827044
      2          6           0        0.765013   -1.265594   -0.549393
      3          6           0        0.174007    0.031111   -1.091809
      4          6           0       -1.338679    0.119818   -0.834860
      5          6           0       -1.677354   -0.423027    0.592467
      6          6           0       -0.398757   -0.570749    1.414980
      7          8           0        0.577475   -1.341414    0.901636
      8          8           0       -1.727419    1.458915   -1.050892
      9          8           0        0.853324    1.229600   -0.526156
     10          8           0        3.018705   -0.450913   -0.325581
     11          1           0        2.371101   -1.642778   -1.920633
     12          1           0        2.510149   -2.475073   -0.346019
     13          1           0        0.191356   -2.094210   -1.001763
     14          1           0        0.392691    0.139894   -2.160854
     15          1           0       -1.814978   -0.565233   -1.563992
     16          1           0       -2.338493    0.298679    1.105598
     17          1           0       -0.568256   -0.852597    2.458936
     18          8           0       -2.225490   -1.726636    0.574442
     19          6           0        4.422003   -0.719054   -0.436210
     20          1           0        4.943026    0.150347   -0.021225
     21          1           0        4.699346   -1.618978    0.138127
     22          1           0        4.721189   -0.852814   -1.489531
     23          6           0       -3.652688   -1.757129    0.411988
     24          1           0       -3.963565   -1.350572   -0.565045
     25          1           0       -3.941131   -2.811647    0.468570
     26          1           0       -4.151493   -1.196076    1.218797
     27          6           0       -3.122012    1.618579   -1.353961
     28          1           0       -3.392887    1.050018   -2.258637
     29          1           0       -3.766296    1.303735   -0.516332
     30          1           0       -3.273185    2.687519   -1.535930
     31          6           0        0.746009    1.577890    0.715339
     32          8           0        0.142639    0.923840    1.639860
     33          6           0        1.417882    2.845737    1.085977
     34          1           0        1.299785    3.584737    0.286190
     35          1           0        2.492650    2.629684    1.192394
     36          1           0        1.035853    3.218807    2.040019
 ---------------------------------------------------------------------
 Rotational constants (GHZ):      0.7143619      0.3678867      0.3122191
 Leave Link  202 at Mon Jan  9 13:02:32 2017, MaxMem= 13421772800 cpu:         0.5
 (Enter /share/apps//g09/l301.exe)
 Standard basis: 6-311+G(d,p) (5D, 7F)
 Ernie: Thresh=  0.10000D-02 Tol=  0.10000D-05 Strict=F.
 There are   505 symmetry adapted cartesian basis functions of A   symmetry.
 There are   488 symmetry adapted basis functions of A   symmetry.
   488 basis functions,   764 primitive gaussians,   505 cartesian basis functions
    66 alpha electrons       66 beta electrons
       nuclear repulsion energy      1447.7674924792 Hartrees.
 IExCor= 1009 DFT=T Ex+Corr=PBE1PBE ExCW=0 ScaHFX=  0.250000
 ScaDFX=  0.750000  0.750000  1.000000  1.000000 ScalE2=  1.000000  1.000000
 IRadAn=      0 IRanWt=     -1 IRanGd=            0 ICorTp=0 IEmpDi=131
 NAtoms=   36 NActive=   36 NUniq=   36 SFac= 1.00D+00 NAtFMM=   60 NAOKFM=F Big=F
 Integral buffers will be    131072 words long.
 Raffenetti 2 integral format.
 Two-electron integral symmetry is turned on.
 R6Disp:  Grimme-D3 Dispersion energy=       -0.0247405741 Hartrees.
 Nuclear repulsion after empirical dispersion term =     1447.7427519051 Hartrees.
 Leave Link  301 at Mon Jan  9 13:02:32 2017, MaxMem= 13421772800 cpu:         1.4
 (Enter /share/apps//g09/l302.exe)
 NPDir=0 NMtPBC=     1 NCelOv=     1 NCel=       1 NClECP=     1 NCelD=      1
         NCelK=      1 NCelE2=     1 NClLst=     1 CellRange=     0.0.
 One-electron integrals computed using PRISM.
 NBasis=   488 RedAO= T EigKep=  1.39D-06  NBF=   488
 NBsUse=   488 1.00D-06 EigRej= -1.00D+00 NBFU=   488
 Precomputing XC quadrature grid using
 IXCGrd= 4 IRadAn=           0 IRanWt=          -1 IRanGd=           0 AccXCQ= 0.00D+00.
 Generated NRdTot=       0 NPtTot=           0 NUsed=           0 NTot=          32
 NSgBfM=   503   503   504   504   504 MxSgAt=    36 MxSgA2=    36.
 Leave Link  302 at Mon Jan  9 13:02:33 2017, MaxMem= 13421772800 cpu:        10.9
 (Enter /share/apps//g09/l303.exe)
 DipDrv:  MaxL=1.
 Leave Link  303 at Mon Jan  9 13:02:34 2017, MaxMem= 13421772800 cpu:         5.3
 (Enter /share/apps//g09/l401.exe)
 ExpMin= 4.38D-02 ExpMax= 8.59D+03 ExpMxC= 1.30D+03 IAcc=2 IRadAn=         4 AccDes= 0.00D+00
 Harris functional with IExCor= 1009 and IRadAn=       4 diagonalized for initial guess.
 HarFok:  IExCor= 1009 AccDes= 0.00D+00 IRadAn=         4 IDoV= 1 UseB2=F ITyADJ=14
 ICtDFT=  3500011 ScaDFX=  1.000000  1.000000  1.000000  1.000000
 FoFCou: FMM=F IPFlag=           0 FMFlag=      100000 FMFlg1=           0
         NFxFlg=           0 DoJE=T BraDBF=F KetDBF=T FulRan=T
         wScrn=  0.000000 ICntrl=     500 IOpCl=  0 I1Cent=   200000004 NGrid=           0
         NMat0=    1 NMatS0=      1 NMatT0=    0 NMatD0=    1 NMtDS0=    0 NMtDT0=    0
 Petite list used in FoFCou.
 Harris En= -881.104721356485    
 JPrj=0 DoOrth=F DoCkMO=F.
 Leave Link  401 at Mon Jan  9 13:02:36 2017, MaxMem= 13421772800 cpu:        36.5
 (Enter /share/apps//g09/l502.exe)
 Closed shell SCF:
 Using DIIS extrapolation, IDIIS=  1040.
 Integral symmetry usage will be decided dynamically.
 Keep R1 ints in memory in canonical form, NReq=7183787934.
 IVT=      797493 IEndB=      797493 NGot= 13421772800 MDV=  6302761722
 LenX=  6302761722 LenY=  6302506192
 Requested convergence on RMS density matrix=1.00D-08 within 128 cycles.
 Requested convergence on MAX density matrix=1.00D-06.
 Requested convergence on             energy=1.00D-06.
 No special actions if energy rises.
 FoFCou: FMM=F IPFlag=           0 FMFlag=           0 FMFlg1=           0
         NFxFlg=           0 DoJE=F BraDBF=F KetDBF=F FulRan=T
         wScrn=  0.000000 ICntrl=     600 IOpCl=  0 I1Cent=           0 NGrid=           0
         NMat0=    1 NMatS0= 119316 NMatT0=    0 NMatD0=    1 NMtDS0=    0 NMtDT0=    0
 Symmetry not used in FoFCou.

 Cycle   1  Pass 1  IDiag  1:
 E= -880.655538415921    
 DIIS: error= 1.40D-02 at cycle   1 NSaved=   1.
 NSaved= 1 IEnMin= 1 EnMin= -880.655538415921     IErMin= 1 ErrMin= 1.40D-02
 ErrMax= 1.40D-02  0.00D+00 EMaxC= 1.00D-01 BMatC= 3.69D-01 BMatP= 3.69D-01
 IDIUse=3 WtCom= 8.60D-01 WtEn= 1.40D-01
 Coeff-Com:  0.100D+01
 Coeff-En:   0.100D+01
 Coeff:      0.100D+01
 Gap=     0.121 Goal=   None    Shift=    0.000
 GapD=    0.121 DampG=1.000 DampE=0.500 DampFc=0.5000 IDamp=-1.
 Damping current iteration by 5.00D-01
 RMSDP=1.66D-02 MaxDP=3.23D+00              OVMax= 1.27D-01

 Cycle   2  Pass 1  IDiag  1:
 E= -880.780846898619     Delta-E=       -0.125308482698 Rises=F Damp=T
 DIIS: error= 3.24D-03 at cycle   2 NSaved=   2.
 NSaved= 2 IEnMin= 2 EnMin= -880.780846898619     IErMin= 2 ErrMin= 3.24D-03
 ErrMax= 3.24D-03  0.00D+00 EMaxC= 1.00D-01 BMatC= 2.83D-02 BMatP= 3.69D-01
 IDIUse=3 WtCom= 9.68D-01 WtEn= 3.24D-02
 Coeff-Com: -0.169D-01 0.102D+01
 Coeff-En:   0.322D-01 0.968D+00
 Coeff:     -0.153D-01 0.102D+01
 Gap=     0.233 Goal=   None    Shift=    0.000
 RMSDP=6.33D-03 MaxDP=1.04D+00 DE=-1.25D-01 OVMax= 8.79D-02

 Cycle   3  Pass 1  IDiag  1:
 E= -880.913255241632     Delta-E=       -0.132408343014 Rises=F Damp=F
 DIIS: error= 5.25D-03 at cycle   3 NSaved=   3.
 NSaved= 3 IEnMin= 3 EnMin= -880.913255241632     IErMin= 2 ErrMin= 3.24D-03
 ErrMax= 5.25D-03  0.00D+00 EMaxC= 1.00D-01 BMatC= 1.90D-02 BMatP= 2.83D-02
 IDIUse=3 WtCom= 9.48D-01 WtEn= 5.25D-02
 Coeff-Com: -0.929D-01 0.471D+00 0.622D+00
 Coeff-En:   0.000D+00 0.000D+00 0.100D+01
 Coeff:     -0.881D-01 0.446D+00 0.642D+00
 Gap=     0.213 Goal=   None    Shift=    0.000
 RMSDP=1.60D-03 MaxDP=2.92D-01 DE=-1.32D-01 OVMax= 1.92D-02

 Cycle   4  Pass 1  IDiag  1:
 E= -880.924490476932     Delta-E=       -0.011235235299 Rises=F Damp=F
 DIIS: error= 2.24D-03 at cycle   4 NSaved=   4.
 NSaved= 4 IEnMin= 4 EnMin= -880.924490476932     IErMin= 4 ErrMin= 2.24D-03
 ErrMax= 2.24D-03  0.00D+00 EMaxC= 1.00D-01 BMatC= 4.01D-03 BMatP= 1.90D-02
 IDIUse=3 WtCom= 9.78D-01 WtEn= 2.24D-02
 Coeff-Com: -0.464D-01 0.152D+00 0.366D+00 0.529D+00
 Coeff-En:   0.000D+00 0.000D+00 0.149D+00 0.851D+00
 Coeff:     -0.454D-01 0.148D+00 0.361D+00 0.536D+00
 Gap=     0.207 Goal=   None    Shift=    0.000
 RMSDP=1.05D-03 MaxDP=2.01D-01 DE=-1.12D-02 OVMax= 8.24D-03

 Cycle   5  Pass 1  IDiag  1:
 E= -880.927326448112     Delta-E=       -0.002835971180 Rises=F Damp=F
 DIIS: error= 4.54D-04 at cycle   5 NSaved=   5.
 NSaved= 5 IEnMin= 5 EnMin= -880.927326448112     IErMin= 5 ErrMin= 4.54D-04
 ErrMax= 4.54D-04  0.00D+00 EMaxC= 1.00D-01 BMatC= 2.17D-04 BMatP= 4.01D-03
 IDIUse=3 WtCom= 9.95D-01 WtEn= 4.54D-03
 Coeff-Com: -0.167D-01 0.421D-01 0.139D+00 0.273D+00 0.563D+00
 Coeff-En:   0.000D+00 0.000D+00 0.000D+00 0.000D+00 0.100D+01
 Coeff:     -0.166D-01 0.419D-01 0.139D+00 0.271D+00 0.565D+00
 Gap=     0.208 Goal=   None    Shift=    0.000
 RMSDP=2.39D-04 MaxDP=3.01D-02 DE=-2.84D-03 OVMax= 3.03D-03

 Cycle   6  Pass 1  IDiag  1:
 E= -880.927443514871     Delta-E=       -0.000117066759 Rises=F Damp=F
 DIIS: error= 2.67D-04 at cycle   6 NSaved=   6.
 NSaved= 6 IEnMin= 6 EnMin= -880.927443514871     IErMin= 6 ErrMin= 2.67D-04
 ErrMax= 2.67D-04  0.00D+00 EMaxC= 1.00D-01 BMatC= 5.59D-05 BMatP= 2.17D-04
 IDIUse=3 WtCom= 9.97D-01 WtEn= 2.67D-03
 Coeff-Com: -0.619D-02 0.113D-01 0.532D-01 0.124D+00 0.382D+00 0.436D+00
 Coeff-En:   0.000D+00 0.000D+00 0.000D+00 0.000D+00 0.206D+00 0.794D+00
 Coeff:     -0.617D-02 0.113D-01 0.531D-01 0.124D+00 0.381D+00 0.437D+00
 Gap=     0.209 Goal=   None    Shift=    0.000
 RMSDP=9.41D-05 MaxDP=8.31D-03 DE=-1.17D-04 OVMax= 1.20D-03

 Cycle   7  Pass 1  IDiag  1:
 E= -880.927483312495     Delta-E=       -0.000039797624 Rises=F Damp=F
 DIIS: error= 3.01D-05 at cycle   7 NSaved=   7.
 NSaved= 7 IEnMin= 7 EnMin= -880.927483312495     IErMin= 7 ErrMin= 3.01D-05
 ErrMax= 3.01D-05  0.00D+00 EMaxC= 1.00D-01 BMatC= 1.12D-06 BMatP= 5.59D-05
 IDIUse=1 WtCom= 1.00D+00 WtEn= 0.00D+00
 Coeff-Com: -0.184D-02 0.277D-02 0.162D-01 0.421D-01 0.148D+00 0.209D+00
 Coeff-Com:  0.584D+00
 Coeff:     -0.184D-02 0.277D-02 0.162D-01 0.421D-01 0.148D+00 0.209D+00
 Coeff:      0.584D+00
 Gap=     0.208 Goal=   None    Shift=    0.000
 RMSDP=1.91D-05 MaxDP=2.89D-03 DE=-3.98D-05 OVMax= 1.54D-04

 Cycle   8  Pass 1  IDiag  1:
 E= -880.927484224293     Delta-E=       -0.000000911798 Rises=F Damp=F
 DIIS: error= 9.63D-06 at cycle   8 NSaved=   8.
 NSaved= 8 IEnMin= 8 EnMin= -880.927484224293     IErMin= 8 ErrMin= 9.63D-06
 ErrMax= 9.63D-06  0.00D+00 EMaxC= 1.00D-01 BMatC= 9.01D-08 BMatP= 1.12D-06
 IDIUse=1 WtCom= 1.00D+00 WtEn= 0.00D+00
 Coeff-Com: -0.779D-04-0.107D-03 0.610D-03 0.376D-02 0.184D-01 0.372D-01
 Coeff-Com:  0.246D+00 0.695D+00
 Coeff:     -0.779D-04-0.107D-03 0.610D-03 0.376D-02 0.184D-01 0.372D-01
 Coeff:      0.246D+00 0.695D+00
 Gap=     0.208 Goal=   None    Shift=    0.000
 RMSDP=9.96D-06 MaxDP=1.44D-03 DE=-9.12D-07 OVMax= 5.35D-05

 Cycle   9  Pass 1  IDiag  1:
 E= -880.927484289090     Delta-E=       -0.000000064797 Rises=F Damp=F
 DIIS: error= 4.29D-06 at cycle   9 NSaved=   9.
 NSaved= 9 IEnMin= 9 EnMin= -880.927484289090     IErMin= 9 ErrMin= 4.29D-06
 ErrMax= 4.29D-06  0.00D+00 EMaxC= 1.00D-01 BMatC= 1.56D-08 BMatP= 9.01D-08
 IDIUse=1 WtCom= 1.00D+00 WtEn= 0.00D+00
 Coeff-Com:  0.657D-04-0.213D-03-0.735D-03-0.717D-03-0.589D-03 0.457D-02
 Coeff-Com:  0.857D-01 0.365D+00 0.546D+00
 Coeff:      0.657D-04-0.213D-03-0.735D-03-0.717D-03-0.589D-03 0.457D-02
 Coeff:      0.857D-01 0.365D+00 0.546D+00
 Gap=     0.208 Goal=   None    Shift=    0.000
 RMSDP=1.30D-06 MaxDP=1.71D-04 DE=-6.48D-08 OVMax= 2.22D-05

 Cycle  10  Pass 1  IDiag  1:
 E= -880.927484299554     Delta-E=       -0.000000010464 Rises=F Damp=F
 DIIS: error= 1.08D-06 at cycle  10 NSaved=  10.
 NSaved=10 IEnMin=10 EnMin= -880.927484299554     IErMin=10 ErrMin= 1.08D-06
 ErrMax= 1.08D-06  0.00D+00 EMaxC= 1.00D-01 BMatC= 1.63D-09 BMatP= 1.56D-08
 IDIUse=1 WtCom= 1.00D+00 WtEn= 0.00D+00
 Coeff-Com:  0.490D-04-0.107D-03-0.528D-03-0.938D-03-0.296D-02-0.265D-02
 Coeff-Com:  0.156D-01 0.109D+00 0.289D+00 0.594D+00
 Coeff:      0.490D-04-0.107D-03-0.528D-03-0.938D-03-0.296D-02-0.265D-02
 Coeff:      0.156D-01 0.109D+00 0.289D+00 0.594D+00
 Gap=     0.208 Goal=   None    Shift=    0.000
 RMSDP=1.10D-06 MaxDP=1.30D-04 DE=-1.05D-08 OVMax= 6.22D-06

 Cycle  11  Pass 1  IDiag  1:
 E= -880.927484300776     Delta-E=       -0.000000001222 Rises=F Damp=F
 DIIS: error= 2.44D-07 at cycle  11 NSaved=  11.
 NSaved=11 IEnMin=11 EnMin= -880.927484300776     IErMin=11 ErrMin= 2.44D-07
 ErrMax= 2.44D-07  0.00D+00 EMaxC= 1.00D-01 BMatC= 5.86D-11 BMatP= 1.63D-09
 IDIUse=1 WtCom= 1.00D+00 WtEn= 0.00D+00
 Coeff-Com:  0.139D-04-0.277D-04-0.162D-03-0.309D-03-0.107D-02-0.124D-02
 Coeff-Com:  0.139D-02 0.209D-01 0.794D-01 0.235D+00 0.666D+00
 Coeff:      0.139D-04-0.277D-04-0.162D-03-0.309D-03-0.107D-02-0.124D-02
 Coeff:      0.139D-02 0.209D-01 0.794D-01 0.235D+00 0.666D+00
 Gap=     0.208 Goal=   None    Shift=    0.000
 RMSDP=1.33D-07 MaxDP=1.37D-05 DE=-1.22D-09 OVMax= 1.63D-06

 Cycle  12  Pass 1  IDiag  1:
 E= -880.927484300805     Delta-E=       -0.000000000029 Rises=F Damp=F
 DIIS: error= 1.23D-07 at cycle  12 NSaved=  12.
 NSaved=12 IEnMin=12 EnMin= -880.927484300805     IErMin=12 ErrMin= 1.23D-07
 ErrMax= 1.23D-07  0.00D+00 EMaxC= 1.00D-01 BMatC= 1.19D-11 BMatP= 5.86D-11
 IDIUse=1 WtCom= 1.00D+00 WtEn= 0.00D+00
 Coeff-Com:  0.127D-05-0.141D-05-0.235D-04-0.510D-04-0.211D-03-0.316D-03
 Coeff-Com: -0.110D-02-0.189D-02 0.790D-02 0.549D-01 0.354D+00 0.587D+00
 Coeff:      0.127D-05-0.141D-05-0.235D-04-0.510D-04-0.211D-03-0.316D-03
 Coeff:     -0.110D-02-0.189D-02 0.790D-02 0.549D-01 0.354D+00 0.587D+00
 Gap=     0.208 Goal=   None    Shift=    0.000
 RMSDP=4.60D-08 MaxDP=6.35D-06 DE=-2.91D-11 OVMax= 8.24D-07

 Cycle  13  Pass 1  IDiag  1:
 E= -880.927484300798     Delta-E=        0.000000000007 Rises=F Damp=F
 DIIS: error= 3.67D-08 at cycle  13 NSaved=  13.
 NSaved=13 IEnMin=12 EnMin= -880.927484300805     IErMin=13 ErrMin= 3.67D-08
 ErrMax= 3.67D-08  0.00D+00 EMaxC= 1.00D-01 BMatC= 5.97D-13 BMatP= 1.19D-11
 IDIUse=1 WtCom= 1.00D+00 WtEn= 0.00D+00
 Coeff-Com: -0.406D-06 0.128D-05 0.112D-05-0.215D-06-0.129D-04-0.311D-04
 Coeff-Com: -0.582D-03-0.222D-02-0.251D-02 0.377D-02 0.927D-01 0.245D+00
 Coeff-Com:  0.664D+00
 Coeff:     -0.406D-06 0.128D-05 0.112D-05-0.215D-06-0.129D-04-0.311D-04
 Coeff:     -0.582D-03-0.222D-02-0.251D-02 0.377D-02 0.927D-01 0.245D+00
 Coeff:      0.664D+00
 Gap=     0.208 Goal=   None    Shift=    0.000
 RMSDP=2.40D-08 MaxDP=3.24D-06 DE= 6.82D-12 OVMax= 1.77D-07

 Cycle  14  Pass 1  IDiag  1:
 E= -880.927484300813     Delta-E=       -0.000000000015 Rises=F Damp=F
 DIIS: error= 1.60D-08 at cycle  14 NSaved=  14.
 NSaved=14 IEnMin=14 EnMin= -880.927484300813     IErMin=14 ErrMin= 1.60D-08
 ErrMax= 1.60D-08  0.00D+00 EMaxC= 1.00D-01 BMatC= 9.53D-14 BMatP= 5.97D-13
 IDIUse=1 WtCom= 1.00D+00 WtEn= 0.00D+00
 Coeff-Com: -0.288D-06 0.733D-06 0.230D-05 0.352D-05 0.937D-05 0.103D-04
 Coeff-Com: -0.227D-03-0.102D-02-0.198D-02-0.285D-02 0.186D-01 0.800D-01
 Coeff-Com:  0.354D+00 0.554D+00
 Coeff:     -0.288D-06 0.733D-06 0.230D-05 0.352D-05 0.937D-05 0.103D-04
 Coeff:     -0.227D-03-0.102D-02-0.198D-02-0.285D-02 0.186D-01 0.800D-01
 Coeff:      0.354D+00 0.554D+00
 Gap=     0.208 Goal=   None    Shift=    0.000
 RMSDP=1.07D-08 MaxDP=1.38D-06 DE=-1.50D-11 OVMax= 6.24D-08

 Cycle  15  Pass 1  IDiag  1:
 E= -880.927484300786     Delta-E=        0.000000000027 Rises=F Damp=F
 DIIS: error= 2.16D-09 at cycle  15 NSaved=  15.
 NSaved=15 IEnMin=14 EnMin= -880.927484300813     IErMin=15 ErrMin= 2.16D-09
 ErrMax= 2.16D-09  0.00D+00 EMaxC= 1.00D-01 BMatC= 5.04D-15 BMatP= 9.53D-14
 IDIUse=1 WtCom= 1.00D+00 WtEn= 0.00D+00
 Coeff-Com: -0.805D-07 0.186D-06 0.879D-06 0.150D-05 0.528D-05 0.772D-05
 Coeff-Com: -0.371D-04-0.193D-03-0.558D-03-0.161D-02-0.134D-02 0.925D-02
 Coeff-Com:  0.808D-01 0.237D+00 0.677D+00
 Coeff:     -0.805D-07 0.186D-06 0.879D-06 0.150D-05 0.528D-05 0.772D-05
 Coeff:     -0.371D-04-0.193D-03-0.558D-03-0.161D-02-0.134D-02 0.925D-02
 Coeff:      0.808D-01 0.237D+00 0.677D+00
 Gap=     0.208 Goal=   None    Shift=    0.000
 RMSDP=1.55D-08 MaxDP=2.42D-06 DE= 2.73D-11 OVMax= 1.67D-08

 Cycle  16  Pass 1  IDiag  1:
 E= -880.927484300827     Delta-E=       -0.000000000041 Rises=F Damp=F
 DIIS: error= 6.40D-10 at cycle  16 NSaved=  16.
 NSaved=16 IEnMin=16 EnMin= -880.927484300827     IErMin=16 ErrMin= 6.40D-10
 ErrMax= 6.40D-10  0.00D+00 EMaxC= 1.00D-01 BMatC= 3.04D-16 BMatP= 5.04D-15
 IDIUse=1 WtCom= 1.00D+00 WtEn= 0.00D+00
 Large coefficients: NSaved= 16 BigCof=    0.00 CofMax=   10.00 Det=-2.93D-15
 Inversion failed.  Reducing to 15 matrices.
 Coeff-Com: -0.371D-09 0.874D-07 0.128D-06 0.733D-06 0.162D-05 0.245D-06
 Coeff-Com: -0.503D-06-0.631D-04-0.392D-03-0.163D-02-0.152D-02 0.102D-01
 Coeff-Com:  0.587D-01 0.268D+00 0.667D+00
 Coeff:     -0.371D-09 0.874D-07 0.128D-06 0.733D-06 0.162D-05 0.245D-06
 Coeff:     -0.503D-06-0.631D-04-0.392D-03-0.163D-02-0.152D-02 0.102D-01
 Coeff:      0.587D-01 0.268D+00 0.667D+00
 Gap=     0.208 Goal=   None    Shift=    0.000
 RMSDP=7.05D-09 MaxDP=1.12D-06 DE=-4.09D-11 OVMax= 3.90D-09

 Cycle  17  Pass 1  IDiag  1:
 E= -880.927484300828     Delta-E=       -0.000000000001 Rises=F Damp=F
 DIIS: error= 2.13D-10 at cycle  17 NSaved=  16.
 NSaved=16 IEnMin=16 EnMin= -880.927484300828     IErMin=16 ErrMin= 2.13D-10
 ErrMax= 2.13D-10  0.00D+00 EMaxC= 1.00D-01 BMatC= 5.40D-17 BMatP= 3.04D-16
 IDIUse=1 WtCom= 1.00D+00 WtEn= 0.00D+00
 Large coefficients: NSaved= 16 BigCof=    0.00 CofMax=   10.00 Det=-4.06D-16
 Inversion failed.  Reducing to 15 matrices.
 Coeff-Com:  0.284D-07 0.515D-07 0.203D-06 0.420D-06 0.275D-05 0.956D-05
 Coeff-Com:  0.118D-05-0.705D-04-0.641D-03-0.144D-02-0.242D-02 0.477D-02
 Coeff-Com:  0.600D-01 0.331D+00 0.609D+00
 Coeff:      0.284D-07 0.515D-07 0.203D-06 0.420D-06 0.275D-05 0.956D-05
 Coeff:      0.118D-05-0.705D-04-0.641D-03-0.144D-02-0.242D-02 0.477D-02
 Coeff:      0.600D-01 0.331D+00 0.609D+00
 Gap=     0.208 Goal=   None    Shift=    0.000
 RMSDP=1.42D-08 MaxDP=3.35D-06 DE=-9.09D-13 OVMax= 1.17D-09

 Cycle  18  Pass 1  IDiag  1:
 E= -880.927484300833     Delta-E=       -0.000000000005 Rises=F Damp=F
 DIIS: error= 2.58D-10 at cycle  18 NSaved=  16.
 NSaved=16 IEnMin=16 EnMin= -880.927484300833     IErMin=15 ErrMin= 2.13D-10
 ErrMax= 2.58D-10  0.00D+00 EMaxC= 1.00D-01 BMatC= 8.70D-18 BMatP= 5.40D-17
 IDIUse=1 WtCom= 1.00D+00 WtEn= 0.00D+00
 Large coefficients: NSaved= 16 BigCof=    0.00 CofMax=   10.00 Det=-5.31D-17
 Inversion failed.  Reducing to 15 matrices.
 Coeff-Com:  0.207D-08-0.239D-07 0.212D-07 0.147D-05 0.631D-05 0.113D-04
 Coeff-Com:  0.132D-04-0.145D-03-0.536D-03-0.205D-02-0.239D-02 0.979D-02
 Coeff-Com:  0.127D+00 0.334D+00 0.534D+00
 Coeff:      0.207D-08-0.239D-07 0.212D-07 0.147D-05 0.631D-05 0.113D-04
 Coeff:      0.132D-04-0.145D-03-0.536D-03-0.205D-02-0.239D-02 0.979D-02
 Coeff:      0.127D+00 0.334D+00 0.534D+00
 Gap=     0.208 Goal=   None    Shift=    0.000
 RMSDP=1.43D-08 MaxDP=2.05D-06 DE=-5.46D-12 OVMax= 4.68D-10

 Cycle  19  Pass 1  IDiag  1:
 E= -880.927484300792     Delta-E=        0.000000000041 Rises=F Damp=F
 DIIS: error= 2.08D-10 at cycle  19 NSaved=  16.
 NSaved=16 IEnMin=15 EnMin= -880.927484300833     IErMin=16 ErrMin= 2.08D-10
 ErrMax= 2.08D-10  0.00D+00 EMaxC= 1.00D-01 BMatC= 3.18D-18 BMatP= 8.70D-18
 IDIUse=1 WtCom= 1.00D+00 WtEn= 0.00D+00
 Large coefficients: NSaved= 16 BigCof=    0.00 CofMax=   10.00 Det=-7.91D-18
 Inversion failed.  Reducing to 15 matrices.
 Coeff-Com: -0.152D-07 0.163D-07 0.848D-06 0.363D-05 0.575D-05 0.288D-05
 Coeff-Com: -0.114D-03-0.373D-03-0.133D-02-0.135D-02 0.717D-02 0.806D-01
 Coeff-Com:  0.213D+00 0.244D+00 0.458D+00
 Coeff:     -0.152D-07 0.163D-07 0.848D-06 0.363D-05 0.575D-05 0.288D-05
 Coeff:     -0.114D-03-0.373D-03-0.133D-02-0.135D-02 0.717D-02 0.806D-01
 Coeff:      0.213D+00 0.244D+00 0.458D+00
 Gap=     0.208 Goal=   None    Shift=    0.000
 RMSDP=1.09D-08 MaxDP=1.74D-06 DE= 4.09D-11 OVMax= 2.82D-10

 Cycle  20  Pass 1  IDiag  1:
 E= -880.927484300786     Delta-E=        0.000000000007 Rises=F Damp=F
 DIIS: error= 6.57D-11 at cycle  20 NSaved=  16.
 NSaved=16 IEnMin=14 EnMin= -880.927484300833     IErMin=16 ErrMin= 6.57D-11
 ErrMax= 6.57D-11  0.00D+00 EMaxC= 1.00D-01 BMatC= 6.77D-19 BMatP= 3.18D-18
 IDIUse=1 WtCom= 1.00D+00 WtEn= 0.00D+00
 Large coefficients: NSaved= 16 BigCof=    0.00 CofMax=   10.00 Det=-2.77D-18
 Inversion failed.  Reducing to 15 matrices.
 Coeff-Com:  0.213D-07 0.453D-06 0.178D-05 0.240D-05-0.402D-06-0.624D-04
 Coeff-Com: -0.193D-03-0.688D-03-0.789D-03 0.272D-02 0.350D-01 0.105D+00
 Coeff-Com:  0.244D-01 0.624D-01 0.772D+00
 Coeff:      0.213D-07 0.453D-06 0.178D-05 0.240D-05-0.402D-06-0.624D-04
 Coeff:     -0.193D-03-0.688D-03-0.789D-03 0.272D-02 0.350D-01 0.105D+00
 Coeff:      0.244D-01 0.624D-01 0.772D+00
 Gap=     0.208 Goal=   None    Shift=    0.000
 RMSDP=3.23D-09 MaxDP=6.83D-07 DE= 6.82D-12 OVMax= 1.96D-10

 SCF Done:  E(RPBE1PBE) =  -880.927484301     A.U. after   20 cycles
            NFock= 20  Conv=0.32D-08     -V/T= 2.0043
 KE= 8.771248082516D+02 PE=-4.938487118635D+03 EE= 1.732692074177D+03
 Leave Link  502 at Mon Jan  9 13:11:44 2017, MaxMem= 13421772800 cpu:      1195.3
 (Enter /share/apps//g09/l601.exe)
 Copying SCF densities to generalized density rwf, IOpCl= 0 IROHF=0.

 **********************************************************************

            Population analysis using the SCF density.

 **********************************************************************

 Orbital symmetries:
       Occupied  (A) (A) (A) (A) (A) (A) (A) (A) (A) (A) (A) (A)
                 (A) (A) (A) (A) (A) (A) (A) (A) (A) (A) (A) (A)
                 (A) (A) (A) (A) (A) (A) (A) (A) (A) (A) (A) (A)
                 (A) (A) (A) (A) (A) (A) (A) (A) (A) (A) (A) (A)
                 (A) (A) (A) (A) (A) (A) (A) (A) (A) (A) (A) (A)
                 (A) (A) (A) (A) (A) (A)
       Virtual   (A) (A) (A) (A) (A) (A) (A) (A) (A) (A) (A) (A)
                 (A) (A) (A) (A) (A) (A) (A) (A) (A) (A) (A) (A)
                 (A) (A) (A) (A) (A) (A) (A) (A) (A) (A) (A) (A)
                 (A) (A) (A) (A) (A) (A) (A) (A) (A) (A) (A) (A)
                 (A) (A) (A) (A) (A) (A) (A) (A) (A) (A) (A) (A)
                 (A) (A) (A) (A) (A) (A) (A) (A) (A) (A) (A) (A)
                 (A) (A) (A) (A) (A) (A) (A) (A) (A) (A) (A) (A)
                 (A) (A) (A) (A) (A) (A) (A) (A) (A) (A) (A) (A)
                 (A) (A) (A) (A) (A) (A) (A) (A) (A) (A) (A) (A)
                 (A) (A) (A) (A) (A) (A) (A) (A) (A) (A) (A) (A)
                 (A) (A) (A) (A) (A) (A) (A) (A) (A) (A) (A) (A)
                 (A) (A) (A) (A) (A) (A) (A) (A) (A) (A) (A) (A)
                 (A) (A) (A) (A) (A) (A) (A) (A) (A) (A) (A) (A)
                 (A) (A) (A) (A) (A) (A) (A) (A) (A) (A) (A) (A)
                 (A) (A) (A) (A) (A) (A) (A) (A) (A) (A) (A) (A)
                 (A) (A) (A) (A) (A) (A) (A) (A) (A) (A) (A) (A)
                 (A) (A) (A) (A) (A) (A) (A) (A) (A) (A) (A) (A)
                 (A) (A) (A) (A) (A) (A) (A) (A) (A) (A) (A) (A)
                 (A) (A) (A) (A) (A) (A) (A) (A) (A) (A) (A) (A)
                 (A) (A) (A) (A) (A) (A) (A) (A) (A) (A) (A) (A)
                 (A) (A) (A) (A) (A) (A) (A) (A) (A) (A) (A) (A)
                 (A) (A) (A) (A) (A) (A) (A) (A) (A) (A) (A) (A)
                 (A) (A) (A) (A) (A) (A) (A) (A) (A) (A) (A) (A)
                 (A) (A) (A) (A) (A) (A) (A) (A) (A) (A) (A) (A)
                 (A) (A) (A) (A) (A) (A) (A) (A) (A) (A) (A) (A)
                 (A) (A) (A) (A) (A) (A) (A) (A) (A) (A) (A) (A)
                 (A) (A) (A) (A) (A) (A) (A) (A) (A) (A) (A) (A)
                 (A) (A) (A) (A) (A) (A) (A) (A) (A) (A) (A) (A)
                 (A) (A) (A) (A) (A) (A) (A) (A) (A) (A) (A) (A)
                 (A) (A) (A) (A) (A) (A) (A) (A) (A) (A) (A) (A)
                 (A) (A) (A) (A) (A) (A) (A) (A) (A) (A) (A) (A)
                 (A) (A) (A) (A) (A) (A) (A) (A) (A) (A) (A) (A)
                 (A) (A) (A) (A) (A) (A) (A) (A) (A) (A) (A) (A)
                 (A) (A) (A) (A) (A) (A) (A) (A) (A) (A) (A) (A)
                 (A) (A) (A) (A) (A) (A) (A) (A) (A) (A) (A) (A)
                 (A) (A)
 The electronic state is 1-A.
 Alpha  occ. eigenvalues --  -19.44490 -19.43669 -19.39894 -19.36068 -19.35827
 Alpha  occ. eigenvalues --  -19.33689 -10.56478 -10.50862 -10.46745 -10.44982
 Alpha  occ. eigenvalues --  -10.44407 -10.44100 -10.40989 -10.39412 -10.39167
 Alpha  occ. eigenvalues --  -10.38246 -10.37367  -1.34696  -1.27622  -1.25479
 Alpha  occ. eigenvalues --   -1.21964  -1.20804  -1.19103  -1.01016  -0.97871
 Alpha  occ. eigenvalues --   -0.94233  -0.89929  -0.86726  -0.85348  -0.82896
 Alpha  occ. eigenvalues --   -0.81304  -0.78373  -0.77274  -0.76278  -0.71829
 Alpha  occ. eigenvalues --   -0.70740  -0.67738  -0.66719  -0.66168  -0.65324
 Alpha  occ. eigenvalues --   -0.63722  -0.63375  -0.62894  -0.61652  -0.60662
 Alpha  occ. eigenvalues --   -0.60313  -0.59589  -0.58553  -0.57571  -0.57132
 Alpha  occ. eigenvalues --   -0.56435  -0.56089  -0.54877  -0.54290  -0.53513
 Alpha  occ. eigenvalues --   -0.52858  -0.52541  -0.51540  -0.48844  -0.48340
 Alpha  occ. eigenvalues --   -0.47872  -0.46311  -0.46105  -0.44155  -0.40813
 Alpha  occ. eigenvalues --   -0.40072
 Alpha virt. eigenvalues --   -0.19238  -0.11603  -0.11154  -0.09801  -0.09423
 Alpha virt. eigenvalues --   -0.08481  -0.07879  -0.07274  -0.06721  -0.06553
 Alpha virt. eigenvalues --   -0.05977  -0.05797  -0.05115  -0.04764  -0.04488
 Alpha virt. eigenvalues --   -0.03798  -0.03606  -0.03260  -0.02896  -0.02435
 Alpha virt. eigenvalues --   -0.02036  -0.01960  -0.01636  -0.00841  -0.00682
 Alpha virt. eigenvalues --   -0.00122   0.00186   0.00891   0.01052   0.01809
 Alpha virt. eigenvalues --    0.02186   0.02234   0.02635   0.03149   0.03624
 Alpha virt. eigenvalues --    0.04045   0.04278   0.04855   0.05252   0.05615
 Alpha virt. eigenvalues --    0.06156   0.06300   0.06505   0.06787   0.06830
 Alpha virt. eigenvalues --    0.07129   0.07862   0.08109   0.08864   0.09404
 Alpha virt. eigenvalues --    0.09508   0.09667   0.09971   0.10441   0.10774
 Alpha virt. eigenvalues --    0.11102   0.11455   0.11704   0.11851   0.12706
 Alpha virt. eigenvalues --    0.12939   0.13089   0.13264   0.13862   0.14233
 Alpha virt. eigenvalues --    0.14557   0.15334   0.16014   0.16184   0.16582
 Alpha virt. eigenvalues --    0.17604   0.17762   0.18069   0.18467   0.18805
 Alpha virt. eigenvalues --    0.19233   0.19557   0.20210   0.20900   0.21375
 Alpha virt. eigenvalues --    0.21905   0.22640   0.22669   0.23079   0.23635
 Alpha virt. eigenvalues --    0.23975   0.24297   0.25284   0.25470   0.25784
 Alpha virt. eigenvalues --    0.26373   0.26440   0.27469   0.27931   0.28794
 Alpha virt. eigenvalues --    0.29639   0.29822   0.30772   0.30926   0.31703
 Alpha virt. eigenvalues --    0.32821   0.33276   0.34528   0.34899   0.35186
 Alpha virt. eigenvalues --    0.36038   0.36618   0.37036   0.37704   0.38874
 Alpha virt. eigenvalues --    0.39290   0.40635   0.41357   0.41888   0.43086
 Alpha virt. eigenvalues --    0.43681   0.43896   0.45419   0.45666   0.47231
 Alpha virt. eigenvalues --    0.47567   0.47946   0.48990   0.49212   0.50043
 Alpha virt. eigenvalues --    0.50879   0.51466   0.51576   0.52599   0.53117
 Alpha virt. eigenvalues --    0.53199   0.54739   0.55178   0.55951   0.56051
 Alpha virt. eigenvalues --    0.56419   0.57307   0.57557   0.58121   0.59037
 Alpha virt. eigenvalues --    0.59405   0.59592   0.60096   0.61296   0.61616
 Alpha virt. eigenvalues --    0.62282   0.62723   0.63618   0.64034   0.64954
 Alpha virt. eigenvalues --    0.66063   0.66480   0.67633   0.68718   0.69719
 Alpha virt. eigenvalues --    0.70521   0.73469   0.76871   0.78994   0.81730
 Alpha virt. eigenvalues --    0.83614   0.86527   0.87221   0.89401   0.90399
 Alpha virt. eigenvalues --    0.92269   0.92589   0.93889   0.95038   0.96670
 Alpha virt. eigenvalues --    0.97163   0.98222   0.98784   1.00081   1.01746
 Alpha virt. eigenvalues --    1.02991   1.03093   1.04918   1.05539   1.07122
 Alpha virt. eigenvalues --    1.08746   1.10638   1.11045   1.13633   1.14328
 Alpha virt. eigenvalues --    1.15884   1.16618   1.17507   1.19258   1.20631
 Alpha virt. eigenvalues --    1.21583   1.22386   1.23971   1.26188   1.26978
 Alpha virt. eigenvalues --    1.27890   1.29001   1.29956   1.30181   1.31306
 Alpha virt. eigenvalues --    1.32393   1.33567   1.33906   1.34326   1.34619
 Alpha virt. eigenvalues --    1.34831   1.35497   1.38983   1.40012   1.40852
 Alpha virt. eigenvalues --    1.41410   1.42590   1.43667   1.44622   1.45291
 Alpha virt. eigenvalues --    1.45626   1.45913   1.46416   1.47203   1.47984
 Alpha virt. eigenvalues --    1.48216   1.49216   1.49679   1.49713   1.50450
 Alpha virt. eigenvalues --    1.51818   1.53157   1.53770   1.54485   1.54910
 Alpha virt. eigenvalues --    1.56521   1.56849   1.57484   1.57768   1.58788
 Alpha virt. eigenvalues --    1.60487   1.60782   1.61350   1.62086   1.63725
 Alpha virt. eigenvalues --    1.64793   1.65832   1.66455   1.67284   1.68883
 Alpha virt. eigenvalues --    1.69913   1.71016   1.71534   1.72962   1.74191
 Alpha virt. eigenvalues --    1.76016   1.77805   1.78421   1.79735   1.81134
 Alpha virt. eigenvalues --    1.82878   1.84696   1.85214   1.86523   1.87740
 Alpha virt. eigenvalues --    1.90359   1.90921   1.93883   1.95842   1.96838
 Alpha virt. eigenvalues --    1.97969   1.98272   1.99909   2.01046   2.02494
 Alpha virt. eigenvalues --    2.02985   2.04290   2.05059   2.05580   2.06092
 Alpha virt. eigenvalues --    2.08552   2.09196   2.10966   2.13766   2.14623
 Alpha virt. eigenvalues --    2.15636   2.16915   2.19350   2.20400   2.21668
 Alpha virt. eigenvalues --    2.23175   2.32060   2.32889   2.33335   2.33833
 Alpha virt. eigenvalues --    2.35128   2.37685   2.38291   2.39376   2.40289
 Alpha virt. eigenvalues --    2.40987   2.41779   2.41816   2.42665   2.42890
 Alpha virt. eigenvalues --    2.44464   2.44877   2.45599   2.47134   2.47283
 Alpha virt. eigenvalues --    2.48652   2.49042   2.49970   2.51606   2.51974
 Alpha virt. eigenvalues --    2.55399   2.56348   2.59421   2.60321   2.61493
 Alpha virt. eigenvalues --    2.62230   2.65449   2.67583   2.70151   2.71818
 Alpha virt. eigenvalues --    2.73376   2.74024   2.74921   2.76985   2.77922
 Alpha virt. eigenvalues --    2.79020   2.80158   2.81202   2.86551   2.87774
 Alpha virt. eigenvalues --    2.88189   2.89253   2.90282   2.94230   2.94661
 Alpha virt. eigenvalues --    2.95685   2.97374   2.97951   2.99486   3.00298
 Alpha virt. eigenvalues --    3.00696   3.03491   3.05124   3.05402   3.06900
 Alpha virt. eigenvalues --    3.07492   3.08809   3.10475   3.11105   3.14017
 Alpha virt. eigenvalues --    3.15441   3.16063   3.17001   3.19614   3.21877
 Alpha virt. eigenvalues --    3.22637   3.27311   3.30402   3.35509   3.40026
 Alpha virt. eigenvalues --    3.49622   3.62818   3.66390   3.66895   3.67713
 Alpha virt. eigenvalues --    3.68167   3.69236   3.70014   3.70711   3.71265
 Alpha virt. eigenvalues --    3.73580   3.78066   3.82616   3.87413   3.89558
 Alpha virt. eigenvalues --    3.94960   3.98122   3.98748   3.98950   4.03422
 Alpha virt. eigenvalues --    4.05225   4.07294   4.09853   4.10458   4.13659
 Alpha virt. eigenvalues --    4.20364   4.25725   4.95299   4.97234   5.02059
 Alpha virt. eigenvalues --    5.03662   5.04260   5.06959   5.15054   5.22537
 Alpha virt. eigenvalues --    5.28791   5.31739   5.33427   5.37235   5.48379
 Alpha virt. eigenvalues --    5.57447   5.59659   5.61551   5.63738   5.84264
 Alpha virt. eigenvalues --   23.69807  23.75101  23.75954  23.78738  23.80467
 Alpha virt. eigenvalues --   23.82745  23.88795  23.89502  23.89987  23.91324
 Alpha virt. eigenvalues --   23.91869  49.89504  49.92192  49.94922  49.97180
 Alpha virt. eigenvalues --   49.98360  50.01687
          Condensed to atoms (all electrons):
               1          2          3          4          5          6
     1  C   10.451288  -3.131222   0.722514  -1.504143  -0.301023   0.607891
     2  C   -3.131222  15.347096  -9.178650   4.795710  -1.486746  -0.860577
     3  C    0.722514  -9.178650  23.872704 -13.214122   6.300097  -3.795489
     4  C   -1.504143   4.795710 -13.214122  22.803123 -10.783565   5.834291
     5  C   -0.301023  -1.486746   6.300097 -10.783565  20.836461 -10.602884
     6  C    0.607891  -0.860577  -3.795489   5.834291 -10.602884  16.764963
     7  O   -0.215268   0.309095  -0.162654   0.056624  -0.036309   0.283584
     8  O   -0.002866  -0.006732   0.058597  -0.059826   0.088202  -0.082781
     9  O   -0.027787   0.197868  -0.422492   0.401990  -0.430613   0.332629
    10  O   -0.024729   0.005037   0.069071   0.008099   0.030113  -0.037447
    11  H    0.402383   0.040718  -0.091078   0.012900   0.000371   0.003384
    12  H    0.330188  -0.003541   0.040781   0.008985  -0.007459   0.000094
    13  H   -0.111782   0.264340   0.159401  -0.070014   0.063762  -0.009661
    14  H   -0.017102   0.035791   0.326162   0.016868   0.037717  -0.029920
    15  H   -0.000044  -0.045240   0.177135   0.324524  -0.099495  -0.008157
    16  H   -0.001380  -0.000489  -0.039394  -0.027292   0.309823   0.131072
    17  H   -0.018598  -0.009044   0.060345  -0.079589   0.202751   0.142933
    18  O    0.015751   0.016978  -0.005551  -0.051361   0.242434  -0.074656
    19  C    0.052039  -0.163095   0.001060  -0.021696   0.005255  -0.006168
    20  H    0.003153   0.023872  -0.002241  -0.000295   0.000367  -0.001032
    21  H    0.014550  -0.027817  -0.001137   0.000198  -0.001226   0.001523
    22  H   -0.013769   0.013358  -0.000209   0.000665   0.000459  -0.000201
    23  C   -0.004446   0.015373   0.021395   0.051682  -0.172018  -0.138127
    24  H    0.004310   0.016425   0.028201   0.073913  -0.098394  -0.016014
    25  H   -0.001453  -0.002749  -0.003068  -0.007151   0.053723  -0.008165
    26  H   -0.001166  -0.008120  -0.008602  -0.017833  -0.016189   0.043858
    27  C   -0.040421  -0.050543  -0.140743  -0.203698   0.104199   0.023002
    28  H    0.001131  -0.004347   0.073965  -0.023296  -0.037367  -0.003527
    29  H   -0.000783  -0.002573  -0.028470  -0.106380   0.111254   0.005237
    30  H    0.000086   0.001371  -0.010829   0.062049  -0.013160  -0.000656
    31  C   -0.413032   0.463293  -0.042620  -0.948873   1.616079  -1.821061
    32  O    0.032576   0.206665  -0.099258   0.037694  -0.052788   0.030393
    33  C   -0.045839  -0.733093   1.310328  -0.874993   0.286715  -0.268286
    34  H    0.003413   0.002048   0.001756  -0.004302  -0.001350   0.007936
    35  H   -0.004722  -0.003121  -0.002411   0.002128   0.002756  -0.006443
    36  H   -0.001009   0.001812   0.000699  -0.005021   0.004624  -0.016026
               7          8          9         10         11         12
     1  C   -0.215268  -0.002866  -0.027787  -0.024729   0.402383   0.330188
     2  C    0.309095  -0.006732   0.197868   0.005037   0.040718  -0.003541
     3  C   -0.162654   0.058597  -0.422492   0.069071  -0.091078   0.040781
     4  C    0.056624  -0.059826   0.401990   0.008099   0.012900   0.008985
     5  C   -0.036309   0.088202  -0.430613   0.030113   0.000371  -0.007459
     6  C    0.283584  -0.082781   0.332629  -0.037447   0.003384   0.000094
     7  O    7.762416  -0.003338   0.052848   0.009457   0.019174  -0.024665
     8  O   -0.003338   7.987815   0.011144   0.003226   0.000091   0.000057
     9  O    0.052848   0.011144   7.840932  -0.022854   0.006572  -0.002871
    10  O    0.009457   0.003226  -0.022854   8.261701  -0.054385  -0.043571
    11  H    0.019174   0.000091   0.006572  -0.054385   0.525542  -0.043250
    12  H   -0.024665   0.000057  -0.002871  -0.043571  -0.043250   0.512405
    13  H   -0.029944   0.000359   0.002956   0.006310  -0.005911  -0.001987
    14  H    0.005107  -0.000436  -0.051190  -0.002097   0.003732  -0.000068
    15  H   -0.001587  -0.038736   0.004857   0.000048   0.000021  -0.000008
    16  H    0.005663  -0.004516   0.005103  -0.000103  -0.000002   0.000002
    17  H   -0.051740   0.000439  -0.007262   0.000555   0.000004  -0.000049
    18  O    0.009826   0.001607  -0.002947   0.000004  -0.000170   0.000317
    19  C   -0.009109   0.000330  -0.002574   0.062363  -0.007326   0.002095
    20  H   -0.000112   0.000004  -0.000384  -0.056369  -0.000385  -0.000007
    21  H   -0.000717   0.000001  -0.000912  -0.060213  -0.003915   0.013657
    22  H    0.000130   0.000008   0.000758  -0.046495   0.010702  -0.003836
    23  C    0.003746  -0.009358  -0.001478   0.000330   0.000173  -0.000059
    24  H   -0.000317  -0.003725  -0.000065   0.000001  -0.000001   0.000000
    25  H   -0.000124  -0.000010  -0.000008   0.000001  -0.000000   0.000000
    26  H    0.000268   0.001150   0.000017   0.000000   0.000000   0.000000
    27  C   -0.000839   0.135792   0.002991   0.000348  -0.000298   0.000112
    28  H   -0.000006  -0.043105   0.000042   0.000003  -0.000000  -0.000000
    29  H   -0.000102  -0.025272  -0.000491  -0.000000   0.000000  -0.000000
    30  H    0.000005  -0.072460  -0.000433   0.000002   0.000000   0.000000
    31  C    0.013038   0.079178   0.257880   0.110567  -0.008731   0.005116
    32  O   -0.077065   0.023049  -0.143154   0.021047  -0.000031   0.000233
    33  C   -0.027686  -0.061903  -0.306851  -0.119221  -0.008162   0.001091
    34  H    0.000200   0.000314  -0.008150   0.000371   0.000001  -0.000002
    35  H   -0.000369   0.000182  -0.008900   0.000662   0.000015   0.000013
    36  H    0.000022  -0.000277   0.017769  -0.000217   0.000000   0.000001
              13         14         15         16         17         18
     1  C   -0.111782  -0.017102  -0.000044  -0.001380  -0.018598   0.015751
     2  C    0.264340   0.035791  -0.045240  -0.000489  -0.009044   0.016978
     3  C    0.159401   0.326162   0.177135  -0.039394   0.060345  -0.005551
     4  C   -0.070014   0.016868   0.324524  -0.027292  -0.079589  -0.051361
     5  C    0.063762   0.037717  -0.099495   0.309823   0.202751   0.242434
     6  C   -0.009661  -0.029920  -0.008157   0.131072   0.142933  -0.074656
     7  O   -0.029944   0.005107  -0.001587   0.005663  -0.051740   0.009826
     8  O    0.000359  -0.000436  -0.038736  -0.004516   0.000439   0.001607
     9  O    0.002956  -0.051190   0.004857   0.005103  -0.007262  -0.002947
    10  O    0.006310  -0.002097   0.000048  -0.000103   0.000555   0.000004
    11  H   -0.005911   0.003732   0.000021  -0.000002   0.000004  -0.000170
    12  H   -0.001987  -0.000068  -0.000008   0.000002  -0.000049   0.000317
    13  H    0.456805  -0.002104   0.001546  -0.000369   0.000503  -0.004891
    14  H   -0.002104   0.427101  -0.008375  -0.000087   0.000132  -0.000611
    15  H    0.001546  -0.008375   0.444555  -0.000304  -0.000130  -0.002211
    16  H   -0.000369  -0.000087  -0.000304   0.449668  -0.005916  -0.039148
    17  H    0.000503   0.000132  -0.000130  -0.005916   0.450615   0.002734
[...]
 0.00011040,-0.00052913,-0.00079221,0.00046988,-0.00029106,-0.00011045,
 0.00037089,0.00214819,0.00184727,-0.00113091,-0.00082869,-0.00045286,-
 0.00012849,-0.00072130,-0.00012129,0.00021978,0.00001794,-0.00018965,-
 0.00005012,-0.00150602,-0.00138126,0.00122891,0.00015241,0.00004942,-0
 .00027100,0.00099322,-0.00003710,-0.00068458,0.00018957,0.00024966,0.0
 0003004,0.10519326,0.11488426,0.78303708,-0.00166454,0.00031978,-0.000
 08716,0.00216825,0.00118206,0.00586356,-0.00585210,0.00119807,-0.00143
 535,0.00387397,0.00065056,0.00420060,-0.01765014,0.03882657,0.00458093
 ,-0.07027425,-0.01481226,-0.00225609,0.01400213,0.01294114,-0.02009903
 ,-0.00137809,-0.00236938,-0.00175087,0.03565579,-0.00631549,-0.0072037
 6,0.00107914,-0.00075244,-0.00020412,0.00042357,-0.00007994,-0.0002153
 8,-0.00007206,-0.00025520,0.00023716,-0.00079827,-0.00096788,-0.000575
 71,0.00098086,-0.00068303,-0.00000702,0.00065050,0.00045312,-0.0001486
 1,0.00057268,0.00042254,0.00008813,-0.00231687,0.00507816,-0.00024656,
 -0.01458695,-0.00303550,0.00133306,-0.00018700,-0.00001140,0.00005130,
 0.00017118,0.00001336,-0.00009769,-0.00003345,-0.00005788,-0.00001966,
 0.00003989,0.00003344,0.00001315,0.00238274,0.00293975,-0.00288001,-0.
 00072312,-0.00032120,0.00000840,-0.00109720,-0.00024283,0.00037170,0.0
 0000926,-0.00028548,0.00026045,0.00025574,0.00022839,-0.00014336,-0.00
 014152,-0.00003825,0.00003634,0.00015309,0.00005841,-0.00020666,-0.000
 05800,-0.00006743,-0.00001894,-0.12075742,0.07582924,0.04347838,0.1839
 0121,0.00296105,-0.00089218,0.00031378,-0.00649539,-0.00618658,-0.0171
 5944,0.01066103,-0.00997981,0.00835953,-0.00279577,-0.00120023,-0.0014
 9556,0.00411743,-0.01176794,-0.00367927,-0.00127511,-0.01095907,-0.016
 90109,0.00870523,-0.05749338,0.05289592,-0.00095327,0.00273011,-0.0004
 4512,-0.01227346,0.02593876,-0.04220801,-0.00105522,0.00217138,0.00046
 011,-0.00076826,0.00013955,0.00063134,0.00018010,0.00077803,-0.0005508
 4,0.00210557,0.00196987,0.00289632,-0.00103003,0.00158482,-0.00005257,
 -0.00084308,0.00001468,0.00131289,0.00087670,0.00036729,-0.00007767,0.
 02435122,-0.02309212,0.00034380,0.00573557,0.00331163,-0.00024671,0.00
 024529,0.00034623,-0.00011235,-0.00028399,-0.00008455,0.00009631,0.000
 14502,0.00018696,-0.00011301,-0.00004558,-0.00007652,0.00006314,-0.001
 98513,-0.00091068,0.00145837,0.00068783,0.00020733,-0.00000446,0.00042
 284,0.00008867,-0.00007512,0.00004042,0.00010655,-0.00016809,0.0005862
 7,0.00060554,-0.00068356,-0.00021339,-0.00006715,0.00004106,-0.0001769
 1,-0.00013076,0.00034768,0.00008452,0.00007647,0.00005872,0.08602343,-
 0.21034161,-0.13248129,-0.14089942,0.31866260,0.00124639,-0.00084781,0
 .00083682,-0.00586319,-0.00123232,-0.00389811,0.01819336,-0.00929906,0
 .00851013,-0.00060453,0.00094902,-0.00352261,-0.00614816,-0.00508665,-
 0.00016946,-0.01268309,0.01876965,-0.08455153,-0.01428175,0.02609922,0
 .01004317,-0.00043398,0.00114152,0.00236332,-0.01469468,-0.03444140,-0
 .09561973,0.00100839,0.00187511,-0.00040590,-0.00037554,-0.00008243,0.
 00029495,0.00016533,0.00038063,-0.00020405,0.00071864,0.00142549,0.000
 24475,-0.00132420,0.00106568,0.00042499,-0.00046925,-0.00009613,0.0016
 8181,-0.00086848,-0.00094571,0.00105249,0.01981534,-0.02185041,0.00293
 705,0.00599213,-0.00030986,0.00232920,-0.00089727,-0.00010641,0.000613
 31,-0.00006491,-0.00011033,-0.00001491,0.00017466,0.00029778,-0.000152
 32,0.00004916,0.00000439,-0.00009756,-0.00161721,-0.00051014,0.0012528
 6,0.00061334,0.00023281,0.00000120,0.00032881,0.00004366,-0.00009358,-
 0.00008367,0.00012284,-0.00006016,0.00055009,0.00038723,-0.00058129,-0
 .00003908,-0.00002130,0.00010134,-0.00038503,-0.00000454,0.00033511,-0
 .00005362,-0.00005047,-0.00001186,0.05558217,-0.14753984,-0.31167521,-
 0.05122344,0.18417144,0.46961701,-0.00036156,-0.00004404,0.00015248,-0
 .00109282,0.00074857,0.00044753,0.00731903,-0.00056692,0.00059333,0.00
 042613,0.00018912,-0.00001676,0.00022586,-0.00113526,-0.00013611,0.008
 06647,-0.00238245,-0.00082174,-0.00068783,0.00197596,-0.00191443,-0.00
 030950,-0.00033615,0.00005129,-0.02018255,0.01778132,-0.02223846,0.000
 82248,0.00001634,-0.00025719,0.00004529,-0.00004137,-0.00000569,0.0001
 1630,-0.00000977,-0.00001960,0.00012540,0.00032168,-0.00002392,-0.0000
 7049,0.00004551,-0.00001173,-0.00007609,0.00002443,0.00000188,-0.00000
 447,0.00003063,-0.00002659,-0.00049443,0.00026304,-0.00000898,-0.00003
 511,0.00018620,0.00016864,-0.00040920,-0.00006063,0.00028824,0.0000576
 3,-0.00001216,-0.00003492,0.00003177,0.00006531,-0.00004856,0.00003431
 ,0.00002353,-0.00004859,0.00024546,-0.00003316,-0.00005774,-0.00000041
 ,-0.00000928,0.00001256,-0.00000084,0.00002040,-0.00001029,-0.00001575
 ,-0.00001800,0.00001802,0.00042082,0.00022027,-0.00009324,-0.00006546,
 0.00001878,-0.00000913,-0.00004169,0.00000043,0.00003051,-0.00001437,-
 0.00002433,0.00002031,-0.15958359,0.07198687,-0.00935284,-0.00552340,0
 .01957703,0.00948903,0.50326678,0.00017335,0.00007402,0.00003100,-0.00
 065243,0.00046040,-0.00032236,0.00036089,0.00385784,-0.00195319,0.0008
 0601,-0.00081045,0.00012156,-0.00000948,-0.00161905,-0.00004281,0.0026
 5469,0.00777642,-0.00173977,-0.00088691,0.00010165,0.00039865,-0.00015
 000,0.00026248,-0.00000606,0.01134699,0.00038722,0.00596637,-0.0000730
 1,-0.00000915,-0.00002383,-0.00001731,-0.00000681,0.00002764,-0.000013
 13,0.00001932,-0.00002981,0.00013419,0.00005594,0.00011345,0.00004651,
 0.00005027,-0.00004940,0.00007625,0.00010145,-0.00017454,-0.00005501,-
 0.00004954,-0.00003937,-0.00014335,0.00007131,0.00005490,0.00112255,-0
 .00000173,-0.00007533,0.00012213,0.00005265,-0.00004911,-0.00001905,-0
 .00001178,0.00000713,-0.00000256,0.00000636,-0.00000455,-0.00001501,-0
 .00000371,0.00001324,-0.00022138,-0.00018952,0.00025572,0.00005032,0.0
 0003365,0.00000472,0.00006860,0.00000906,-0.00003052,-0.00000386,0.000
 02436,-0.00002512,-0.00000881,0.00001993,-0.00002481,-0.00002439,-0.00
 000653,-0.00000333,-0.00000209,-0.00002438,0.00002712,0.00002070,0.000
 02500,0.00001789,0.07753490,-0.15975943,0.01524931,0.02677589,-0.02007
 602,-0.01297727,0.01372029,0.55449199,0.00013936,-0.00005505,0.0001187
 2,-0.00117830,-0.00044728,-0.00185296,0.00041046,-0.00362693,-0.001035
 94,-0.00061105,0.00075293,-0.00111294,-0.00056037,-0.00124447,-0.00022
 879,-0.00278771,0.00654260,-0.00435231,0.00000007,-0.00193334,0.003768
 68,0.00009600,-0.00013406,0.00026844,-0.03960086,0.02640751,-0.0111808
 2,-0.00021012,0.00014870,0.00015449,-0.00006287,-0.00000980,0.00010758
 ,0.00004485,0.00007173,-0.00004459,0.00031673,0.00032256,0.00016263,-0
 .00096108,0.00083576,-0.00013920,-0.00019833,-0.00015334,0.00046333,-0
 .00000546,0.00002103,0.00011739,0.00096321,-0.00081217,0.00011176,0.00
 107605,0.00006438,0.00005076,0.00004456,-0.00007153,-0.00002283,-0.000
 04692,-0.00003598,0.00000285,-0.00001487,0.00002145,0.00000121,-0.0000
 0425,-0.00000973,0.00001905,-0.00027221,-0.00017485,0.00019068,0.00008
 810,0.00004536,0.00000140,0.00007361,0.00000947,-0.00002520,0.00000577
 ,0.00002304,-0.00001251,-0.00003221,-0.00006658,-0.00001062,0.00003957
 ,0.00001021,0.00000926,-0.00001591,-0.00000895,0.00002188,-0.00004240,
 -0.00001395,0.00002519,-0.01460139,0.01802386,-0.08019594,0.02750725,-
 0.03460537,-0.00421622,0.02354448,0.01242331,0.61942681,0.00001186,-0.
 00001737,-0.00001904,0.00020080,-0.00007508,0.00022754,-0.00048061,-0.
 00013063,0.00000697,0.00003154,0.00044295,-0.00000592,0.00012436,0.000
 49348,0.00007966,-0.00058812,-0.00156002,0.00097489,0.00018537,0.00015
 664,-0.00051442,0.00025833,-0.00034760,-0.00004419,0.00051780,-0.00083
 414,0.00105857,-0.00003067,0.00001463,0.00004312,0.00001529,-0.0000034
 7,-0.00001514,-0.00002285,-0.00000312,0.00000585,-0.00004324,-0.000030
 50,-0.00003401,0.00000495,0.00000395,-0.00001701,0.00001514,-0.0000701
 4,0.00000612,-0.00000037,0.00000580,0.00001941,-0.00014999,0.00013785,
 -0.00001026,-0.00033163,-0.00007569,-0.00000982,0.00003798,0.00000169,
 -0.00002915,-0.00001269,-0.00001945,-0.00002546,-0.00001106,0.00001148
 ,0.00000150,0.00000748,-0.00000857,0.00001056,0.00005872,0.00005661,-0
 .00006278,-0.00002958,-0.00000765,-0.00000760,-0.00002410,-0.00000758,
 0.00000674,0.00000152,-0.00000312,0.00000881,-0.00014670,-0.00007643,0
 .00007251,0.00003962,-0.00000893,0.00000716,0.00003238,-0.00000358,-0.
 00003885,-0.00004896,-0.00001888,0.00001190,0.00607748,0.02344403,0.01
 434299,-0.00476071,0.00503041,0.00064327,-0.05633395,-0.05381925,-0.03
 922657,0.06246634,0.00007506,-0.00003724,0.00003015,-0.00035203,0.0000
 7673,-0.00029441,0.00086970,0.00020673,0.00022805,0.00002492,-0.000069
 59,-0.00010589,-0.00004644,-0.00034544,-0.00006443,0.00003449,0.001430
 60,-0.00057993,-0.00008290,-0.00016701,0.00040955,-0.00017895,0.000005
 22,0.00005736,-0.00055856,0.00185875,-0.00052401,-0.00001332,0.0001000
 0,0.00001780,-0.00000834,-0.00000672,0.00001318,-0.00000055,0.00002400
 ,-0.00000694,0.00005299,0.00009169,0.00003265,0.00001215,0.00000463,0.
 00000083,-0.00002482,0.00001187,0.00002131,-0.00001234,-0.00000299,0.0
 0001003,0.00008740,-0.00008357,0.00001334,0.00018125,0.00004102,0.0000
 2103,-0.00001563,-0.00002561,0.00002833,-0.00002011,-0.00001558,-0.000
 00805,-0.00000338,0.00001883,0.00000219,0.00000030,-0.00000855,0.00000
 254,-0.00002194,-0.00003814,0.00003366,0.00001522,0.00000610,0.0000015
 1,0.00001468,0.00000483,-0.00000532,-0.00000155,0.00000290,-0.00000081
 ,0.00010426,0.00010520,-0.00004951,-0.00002608,-0.00000267,0.00000428,
 -0.00002590,-0.00000737,0.00001948,-0.00000531,-0.00000290,0.00000762,
 -0.00838491,-0.01837885,-0.01101223,0.00304305,-0.00265396,0.00017831,
 -0.04814556,-0.23876141,-0.11893658,0.05299386,0.25650405,-0.00007005,
 0.00000640,0.00005677,-0.00014912,-0.00001923,0.00000571,0.00068017,-0
 .00010572,0.00021051,-0.00001616,-0.00007714,-0.00000970,0.00003858,-0
 .00005156,-0.00003820,0.00002247,-0.00038802,0.00016423,-0.00005028,-0
 .00001320,0.00001148,-0.00008351,0.00006617,-0.00008828,-0.00237258,0.
 00129189,-0.00167743,0.00016115,-0.00002854,-0.00013702,-0.00000535,0.
 00000551,-0.00001213,0.00002282,-0.00000725,-0.00001064,0.00001491,0.0
 0006259,0.00000506,-0.00005278,0.00002507,0.00000173,-0.00002807,0.000
 02118,0.00001602,0.00001695,0.00001679,-0.00001571,-0.00001385,0.00000
 694,-0.00001384,-0.00009946,0.00008054,0.00000823,-0.00011188,0.000007
 47,0.00007319,0.00003066,0.00001285,0.00001371,0.00001865,-0.00000241,
 -0.00001640,0.00000299,0.00002002,-0.00002615,0.00004464,0.00000621,-0
 .00002351,0.00000053,-0.00000498,0.00000374,-0.00000381,0.00000387,0.0
 0000220,-0.00000235,-0.00000618,0.00000151,0.00008636,0.00002860,-0.00
 002623,-0.00002633,0.00001689,-0.00000778,-0.00000248,-0.00000650,0.00
 000587,0.00002722,0.00000925,0.00002016,0.00619789,0.00161266,-0.00050
 329,-0.00095887,-0.00006696,0.00200356,-0.03851751,-0.12154430,-0.1237
 3213,0.03790169,0.13188270,0.12758094,-0.00025811,0.00013634,0.0000672
 6,-0.00019676,0.00011801,0.00001161,0.00013095,0.00132822,-0.00055900,
 0.00027656,-0.00021111,0.00007249,0.00000416,-0.00008248,0.00002325,0.
 00028816,0.00047903,0.00030789,0.00000219,0.00013818,-0.00033420,0.000
 05222,0.00006020,-0.00001418,0.00196026,0.00087722,0.00078674,0.000089
 58,-0.00032246,0.00020051,0.00005855,-0.00001940,0.00001955,0.00003590
 ,-0.00004824,-0.00001488,0.00001728,0.00001534,0.00001059,0.00002964,-
 0.00003261,-0.00000287,0.00004752,0.00002533,-0.00006653,-0.00001579,-
 0.00001063,-0.00000614,-0.00011012,0.00009223,-0.00000501,0.00013523,-
 0.00002854,-0.00002373,0.00035457,0.00007666,-0.00018670,0.00001580,0.
 00003590,0.00001103,-0.00002336,-0.00004860,0.00001756,-0.00004866,-0.
 00000713,0.00004667,-0.00005130,-0.00001882,0.00003445,0.00000147,0.00
 000344,-0.00000067,0.00000732,-0.00000178,-0.00000308,0.00000116,0.000
 00590,-0.00000517,-0.00004134,-0.00001656,0.00001209,0.00000116,-0.000
 00336,0.00000080,0.00000112,-0.00000158,-0.00000032,0.00000259,0.00000
 517,-0.00000187,-0.02710449,-0.01028626,0.01067558,0.00063193,0.000925
 95,-0.00214058,-0.22505110,-0.09067615,0.08979723,-0.00451923,-0.00150
 923,0.00235058,0.24662571,0.00043933,-0.00008582,-0.00009210,0.0001960
 9,-0.00015469,-0.00023079,-0.00090030,-0.00025598,-0.00000220,-0.00016
 716,-0.00011553,-0.00002008,-0.00016816,0.00015591,0.00002793,-0.00169
 758,0.00051625,-0.00050001,-0.00002326,-0.00067480,0.00088299,0.000060
 75,0.00014263,-0.00003023,0.00017773,-0.00062260,0.00171003,-0.0005225
 7,0.00021423,-0.00021914,-0.00009371,0.00004539,-0.00003168,-0.0000697
 2,0.00004294,0.00000853,-0.00002206,-0.00004597,0.00001821,-0.00000923
 ,0.00001792,0.00001074,0.00001172,0.00001846,0.00001346,-0.00000516,-0
 .00002267,0.00001013,0.00026293,-0.00020515,0.00000941,0.00009524,-0.0
 0003844,-0.00002192,-0.00003155,-0.00009601,0.00008254,-0.00005594,0.0
 0003455,0.00011712,0.00001339,-0.00000911,0.00000585,-0.00004603,0.000
 03548,-0.00005192,-0.00005953,-0.00000958,0.00003080,0.00000645,0.0000
 0410,-0.00000233,0.00000892,-0.00000141,-0.00000109,0.00000116,0.00000
 423,-0.00000495,-0.00005272,-0.00006334,0.00003051,0.00001273,0.000009
 48,-0.00000685,0.00000963,-0.00000107,-0.00000162,0.00002021,0.0000133
 3,0.00000188,0.01974088,0.01188159,-0.01136094,0.00129469,-0.00415409,
 -0.00065928,-0.08759563,-0.08507765,0.04607499,-0.02176463,-0.00925524
 ,0.01166285,0.09602867,0.09115129,-0.00035437,0.00003505,0.00010526,-0
 .00023068,-0.00002044,0.00002997,0.00090493,-0.00002522,0.00008114,0.0
 0000758,0.00005989,-0.00005143,0.00000595,-0.00001992,-0.00008554,0.00
 001077,-0.00031642,0.00009272,0.00000304,-0.00005033,-0.00002765,-0.00
 005332,-0.00004368,0.00003085,-0.00179626,0.00187874,-0.00261327,0.000
 45433,-0.00028713,-0.00010338,0.00004191,-0.00001879,0.00001142,0.0000
 8256,-0.00005094,0.00000262,0.00002763,0.00008843,-0.00000088,-0.00005
 152,0.00001605,-0.00000007,-0.00003208,-0.00000463,0.00002679,0.000007
 63,0.00002109,0.00001000,0.00003742,-0.00000414,-0.00002173,-0.0000887
 1,0.00003606,0.00002074,-0.00013515,0.00013910,-0.00000117,0.00012048,
 0.00006549,-0.00003220,0.00004209,-0.00005929,-0.00000540,0.00002617,-
 0.00000653,-0.00000636,0.00004383,0.00001341,-0.00002737,-0.00000080,-
 0.00000528,0.00000076,-0.00000490,0.00000173,0.00000418,-0.00000073,-0
 .00000228,0.00000378,0.00007907,0.00006675,-0.00004194,-0.00002040,-0.
 00000206,0.00000637,-0.00002027,0.00000263,0.00000745,-0.00000175,-0.0
 0000749,-0.00000287,-0.00077269,-0.00462171,-0.00036178,0.00019147,-0.
 00049211,0.00057752,0.08850220,0.04738874,-0.08169801,-0.01458372,-0.0
 0599656,0.00619213,-0.09797039,-0.04856816,0.08760583,-0.00011049,0.00
 002134,0.00007514,-0.00046911,-0.00004796,-0.00038961,0.00067106,-0.00
 006587,-0.00043191,-0.00000618,0.00024135,-0.00025560,-0.00009789,-0.0
 0007771,-0.00011054,-0.00059098,0.00095660,-0.00026254,0.00007121,-0.0
 0046376,0.00069451,0.00007536,-0.00016568,0.00021886,-0.00512162,0.004
 79265,-0.00125434,0.00009041,-0.00009180,0.00001210,0.00000889,-0.0000
 0642,0.00002278,0.00003080,-0.00000702,-0.00000867,0.00008772,0.000138
 12,0.00003183,-0.00021053,0.00016683,-0.00002765,-0.00002602,-0.000054
 14,0.00008607,-0.00002926,0.00001174,0.00005373,0.00011384,-0.00004794
 ,0.00000887,0.00015451,-0.00004953,0.00003730,0.00002675,0.00005015,-0
 .00004058,0.00003134,0.00002598,-0.00001466,0.00000940,-0.00002156,-0.
 00000006,-0.00000014,-0.00000356,0.00000742,-0.00004856,-0.00001815,0.
 00001063,0.00000969,0.00000819,-0.00000301,0.00001140,-0.00000119,-0.0
 0000093,0.00000089,0.00000796,0.00000592,-0.00002831,-0.00000145,-0.00
 001808,0.00001405,-0.00001058,0.00001827,-0.00002603,0.00001284,0.0000
 0283,-0.00003069,-0.00002284,-0.00001604,-0.00577306,0.00390752,-0.026
 28056,0.00092315,-0.00236889,-0.00031846,-0.05084913,0.01177892,-0.043
 71442,-0.00255250,0.00192852,-0.00505385,0.00664921,-0.00509557,0.0255
 2868,0.05699081,-0.00002350,0.00001925,-0.00003659,0.00009692,0.000123
 92,0.00021467,-0.00016945,0.00142981,-0.00002475,0.00018251,-0.0002097
 1,0.00029015,0.00008051,0.00021835,0.00003485,0.00010383,-0.00059637,0
 .00034188,-0.00004986,0.00017088,-0.00046818,-0.00002645,-0.00000536,-
 0.00004220,0.00539401,-0.00270270,0.00157377,-0.00008656,-0.00008185,0
 .00005723,0.00001839,0.00000139,-0.00001446,-0.00001578,-0.00001963,0.
 00001737,-0.00005292,-0.00003228,-0.00002898,0.00024393,-0.00019564,0.
 00002137,0.00006506,0.00002847,-0.00012754,0.00000649,-0.00001131,-0.0
 0001898,-0.00003220,0.00003162,-0.00003030,-0.00011683,-0.00004995,-0.
 00003744,0.00009414,0.00001433,-0.00004998,-0.00000805,0.00000797,-0.0
 0000028,-0.00001102,-0.00001770,0.00001556,-0.00001108,-0.00001014,0.0
 0001227,0.00002158,0.00002495,-0.00000506,-0.00001581,-0.00000702,-0.0
 0000380,-0.00000811,-0.00000272,0.00000253,0.00000155,0.00000070,-0.00
 000112,-0.00002361,0.00001504,0.00001502,-0.00000007,-0.00001008,0.000
 00025,0.00000291,0.00000467,-0.00000558,-0.00000450,-0.00000148,-0.000
 01621,-0.00240031,-0.00456954,0.02311742,-0.00009322,0.00078016,-0.000
 97345,0.01319897,-0.06147416,0.05054106,-0.00390753,0.00936968,-0.0245
 2445,0.00297315,-0.00339865,0.01078994,-0.01542709,0.06115510,0.000067
 46,-0.00001893,-0.00001415,-0.00007982,0.00001528,-0.00016282,0.000530
 97,-0.00004343,0.00028318,-0.00005343,0.00000093,-0.00002903,-0.000048
 92,-0.00006618,-0.00002751,-0.00049016,0.00071839,0.00020936,0.0000395
 4,-0.00034522,0.00031532,0.00005998,0.00001631,0.00003420,0.00064004,0
 .00029641,0.00089466,-0.00007187,0.00004201,0.00003828,-0.00000937,0.0
 0000373,0.00000462,-0.00001077,0.00000993,-0.00000149,0.00002332,0.000
 00652,0.00002657,0.00003489,-0.00002172,0.00000754,0.00001090,-0.00001
 837,0.00000774,0.00000785,0.00000449,0.00000828,0.00001079,-0.00001811
 ,0.00000338,0.00010335,-0.00001460,-0.00002542,0.00002082,-0.00001256,
 -0.00001037,-0.00001743,-0.00001199,0.00000217,-0.00000528,0.00000681,
 0.00000114,-0.00000038,-0.00000312,0.00000535,-0.00003791,-0.00001463,
 0.00003136,0.00000531,0.00000383,-0.00000323,0.00000689,-0.00000069,-0
 .00000156,0.00000182,0.00000410,-0.00000484,-0.00004887,-0.00001403,0.
 00001787,0.00001046,-0.00000455,0.00000038,0.00000371,-0.00000334,-0.0
 0000185,-0.00000543,0.00000083,-0.00000166,-0.00007903,-0.00074117,-0.
 00146912,0.00155641,-0.00183180,0.00005392,-0.04966649,0.05701474,-0.3
 1516111,-0.00078532,0.00456878,-0.01003832,-0.00311057,0.00110734,-0.0
 0972847,0.05138655,-0.06063600,0.33473565\\-0.00000687,0.00000849,0.00
 000579,-0.00000397,-0.00000193,-0.00000921,0.00000911,-0.00000806,0.00
 000611,-0.00000270,0.00001795,-0.00000071,0.00000040,-0.00000748,-0.00
 000611,-0.00002008,-0.00000366,0.00000806,0.00000756,0.00000948,-0.000
 00131,0.00001009,-0.00000837,-0.00000142,-0.00000628,0.00000472,-0.000
 00997,0.00000192,-0.00000384,0.00000586,0.00000171,0.00000144,0.000003
 23,0.00000033,0.00000008,0.00000195,0.00000056,-0.00000032,0.00000195,
 0.00000104,0.00000149,0.00000017,0.00000234,-0.00000312,-0.00000158,-0
 .00000157,-0.00000315,-0.00000268,-0.00000061,-0.00000076,-0.00000164,
 0.00000526,0.00000019,-0.00000035,0.00000677,0.00000914,-0.00000182,-0
 .00000049,0.00000523,0.00000513,-0.00000100,0.00000289,0.00000476,0.00
 000189,0.00000398,0.00000526,-0.00001190,-0.00000797,0.00000145,0.0000
 0053,-0.00000325,-0.00000279,-0.00000165,-0.00000523,-0.00000429,-0.00
 000202,-0.00000275,-0.00000417,-0.00001023,-0.00000463,-0.00000186,0.0
 0000478,-0.00000277,-0.00000401,0.00000214,-0.00000264,-0.00000485,0.0
 0000415,-0.00000045,-0.00000361,0.00000501,0.00000089,0.00001806,0.000
 00199,-0.00000526,-0.00000958,-0.00000533,0.00000239,0.00000026,0.0000
 0367,0.00000294,0.00000044,0.00000188,0.00000256,0.00000293,0.00000155
 ,0.00000176,0.00000056\\\@


 WE STILL HAVE JUDGEMENT HERE,
 THAT WE TEACH BUT BLOODY INSTRUCTIONS,
 WHICH, BEING TAUGHT,
 RETURN TO PLAGUE THE INVENTOR.
           MACBETH ACT I, SCENE VII
 Job cpu time:       0 days  5 hours 56 minutes 48.0 seconds.
 File lengths (MBytes):  RWF=    766 Int=      0 D2E=      0 Chk=     19 Scr=      1
 Normal termination of Gaussian 09 at Mon Jan  9 14:57:36 2017.
