 Entering Gaussian System, Link 0=g09
 Initial command:
 /share/apps//g09/l1.exe "/scratch/Gau-42634.inp" -scrdir="/scratch/"
 Entering Link 1 = /share/apps//g09/l1.exe PID=     42635.
  
 Copyright (c) 1988,1990,1992,1993,1995,1998,2003,2009,2013,
            Gaussian, Inc.  All Rights Reserved.
  
 This is part of the Gaussian(R) 09 program.  It is based on
 the Gaussian(R) 03 system (copyright 2003, Gaussian, Inc.),
 the Gaussian(R) 98 system (copyright 1998, Gaussian, Inc.),
 the Gaussian(R) 94 system (copyright 1995, Gaussian, Inc.),
 the Gaussian 92(TM) system (copyright 1992, Gaussian, Inc.),
 the Gaussian 90(TM) system (copyright 1990, Gaussian, Inc.),
 the Gaussian 88(TM) system (copyright 1988, Gaussian, Inc.),
 the Gaussian 86(TM) system (copyright 1986, Carnegie Mellon
 University), and the Gaussian 82(TM) system (copyright 1983,
 Carnegie Mellon University). Gaussian is a federally registered
 trademark of Gaussian, Inc.
  
 This software contains proprietary and confidential information,
 including trade secrets, belonging to Gaussian, Inc.
  
 This software is provided under written license and may be
 used, copied, transmitted, or stored only in accord with that
 written license.
  
 The following legend is applicable only to US Government
 contracts under FAR:
  
                    RESTRICTED RIGHTS LEGEND
  
 Use, reproduction and disclosure by the US Government is
 subject to restrictions as set forth in subparagraphs (a)
 and (c) of the Commercial Computer Software - Restricted
 Rights clause in FAR 52.227-19.
  
 Gaussian, Inc.
 340 Quinnipiac St., Bldg. 40, Wallingford CT 06492
  
  
 ---------------------------------------------------------------
 Warning -- This program may not be used in any manner that
 competes with the business of Gaussian, Inc. or will provide
 assistance to any competitor of Gaussian, Inc.  The licensee
 of this program is prohibited from giving any competitor of
 Gaussian, Inc. access to this program.  By using this program,
 the user acknowledges that Gaussian, Inc. is engaged in the
 business of creating and licensing software in the field of
 computational chemistry and represents and warrants to the
 licensee that it is not a competitor of Gaussian, Inc. and that
 it will not use this program in any manner prohibited above.
 ---------------------------------------------------------------
  

 Cite this work as:
 Gaussian 09, Revision D.01,
 M. J. Frisch, G. W. Trucks, H. B. Schlegel, G. E. Scuseria, 
 M. A. Robb, J. R. Cheeseman, G. Scalmani, V. Barone, B. Mennucci, 
 G. A. Petersson, H. Nakatsuji, M. Caricato, X. Li, H. P. Hratchian, 
 A. F. Izmaylov, J. Bloino, G. Zheng, J. L. Sonnenberg, M. Hada, 
 M. Ehara, K. Toyota, R. Fukuda, J. Hasegawa, M. Ishida, T. Nakajima, 
 Y. Honda, O. Kitao, H. Nakai, T. Vreven, J. A. Montgomery, Jr., 
 J. E. Peralta, F. Ogliaro, M. Bearpark, J. J. Heyd, E. Brothers, 
 K. N. Kudin, V. N. Staroverov, T. Keith, R. Kobayashi, J. Normand, 
 K. Raghavachari, A. Rendell, J. C. Burant, S. S. Iyengar, J. Tomasi, 
 M. Cossi, N. Rega, J. M. Millam, M. Klene, J. E. Knox, J. B. Cross, 
 V. Bakken, C. Adamo, J. Jaramillo, R. Gomperts, R. E. Stratmann, 
 O. Yazyev, A. J. Austin, R. Cammi, C. Pomelli, J. W. Ochterski, 
 R. L. Martin, K. Morokuma, V. G. Zakrzewski, G. A. Voth, 
 P. Salvador, J. J. Dannenberg, S. Dapprich, A. D. Daniels, 
 O. Farkas, J. B. Foresman, J. V. Ortiz, J. Cioslowski, 
 and D. J. Fox, Gaussian, Inc., Wallingford CT, 2013.
 
 ******************************************
 Gaussian 09:  EM64L-G09RevD.01 24-Apr-2013
                24-Oct-2017 
 ******************************************
 %nproc=10
 Will use up to   10 processors via shared memory.
 %mem=60GB
 %chk=Ac-4_cGalMe.chk
 -------------------------------------------------------------------
 #P PBE1PBE/6-311+G(d,p) opt optcyc=999 freq EmpiricalDispersion=GD3
 -------------------------------------------------------------------
 1/6=999,14=-1,18=20,19=15,26=3,38=1/1,3;
 2/9=110,12=2,17=6,18=5,40=1/2;
 3/5=4,6=6,7=111,11=2,16=1,25=1,30=1,71=1,74=-13,124=31/1,2,3;
 4//1;
 5/5=2,38=5/2;
 6/7=2,8=2,9=2,10=2,28=1/1;
 7//1,2,3,16;
 1/6=999,14=-1,18=20,19=15,26=3/3(2);
 2/9=110/2;
 99//99;
 2/9=110/2;
 3/5=4,6=6,7=111,11=2,16=1,25=1,30=1,71=1,74=-13,124=31/1,2,3;
 4/5=5,16=3,69=1/1;
 5/5=2,38=5/2;
 7//1,2,3,16;
 1/6=999,14=-1,18=20,19=15,26=3/3(-5);
 2/9=110/2;
 6/7=2,8=2,9=2,10=2,19=2,28=1/1;
 99/9=1/99;
 Leave Link    1 at Tue Oct 24 12:49:09 2017, MaxMem=  8053063680 cpu:         0.7
 (Enter /share/apps//g09/l101.exe)
 -------
 disacch
 -------
 Symbolic Z-matrix:
 Charge =  1 Multiplicity = 1
 C                    -1.47865  -0.49288   2.65666 
 C                    -0.11704  -1.21361   2.62834 
 C                     1.12386  -0.30874   2.57424 
 C                     1.08187   0.68709   1.39742 
 C                     0.50406   0.01208   0.11708 
 C                    -0.52336  -1.08121   0.43098 
 O                    -0.19749  -1.9785    1.38663 
 O                     0.23378   1.80337   1.67376 
 O                     1.24083   0.41591   3.8066 
 O                    -1.84507  -0.42056   1.21751 
 H                    -1.41098   0.5225    3.06128 
 H                    -2.26216  -1.08815   3.13708 
 H                    -0.02109  -1.94342   3.44082 
 H                     1.98829  -0.98332   2.47476 
 H                     2.1028    1.03699   1.16804 
 H                     0.01529   0.81408  -0.45535 
 H                    -0.95187  -1.56947  -0.45284 
 O                     1.42409  -0.55955  -0.79826 
 C                    -2.54127   0.78723   0.74008 
 H                    -2.71059   0.62894  -0.32942 
 H                    -3.5003    0.81683   1.26785 
 H                    -1.92501   1.67016   0.93834 
 C                     2.44861  -1.45043  -0.30828 
 H                     3.15658  -0.92812   0.35358 
 H                     2.03497  -2.33314   0.2005 
 H                     2.98628  -1.77394  -1.20537 
 C                     0.92531   2.98818   2.11689 
 H                     1.40123   2.83091   3.09466 
 H                     1.67823   3.29538   1.37415 
 H                     0.16274   3.77053   2.20069 
 C                     2.03985  -0.20004   4.78015 
 O                     2.54063  -1.28736   4.60806 
 C                     2.17201   0.68231   5.98258 
 H                     1.23935   1.21756   6.19339 
 H                     2.95232   1.43245   5.7864 
 H                     2.47937   0.08024   6.84259 
 
 NAtoms=     36 NQM=       36 NQMF=       0 NMMI=      0 NMMIF=      0
                NMic=       0 NMicF=      0.
                    Isotopes and Nuclear Properties:
 (Nuclear quadrupole moments (NQMom) in fm**2, nuclear magnetic moments (NMagM)
  in nuclear magnetons)

  Atom         1           2           3           4           5           6           7           8           9          10
 IAtWgt=          12          12          12          12          12          12          16          16          16          16
 AtmWgt=  12.0000000  12.0000000  12.0000000  12.0000000  12.0000000  12.0000000  15.9949146  15.9949146  15.9949146  15.9949146
 NucSpn=           0           0           0           0           0           0           0           0           0           0
 AtZEff=   0.0000000   0.0000000   0.0000000   0.0000000   0.0000000   0.0000000   0.0000000   0.0000000   0.0000000   0.0000000
 NQMom=    0.0000000   0.0000000   0.0000000   0.0000000   0.0000000   0.0000000   0.0000000   0.0000000   0.0000000   0.0000000
 NMagM=    0.0000000   0.0000000   0.0000000   0.0000000   0.0000000   0.0000000   0.0000000   0.0000000   0.0000000   0.0000000
 AtZNuc=   6.0000000   6.0000000   6.0000000   6.0000000   6.0000000   6.0000000   8.0000000   8.0000000   8.0000000   8.0000000

  Atom        11          12          13          14          15          16          17          18          19          20
 IAtWgt=           1           1           1           1           1           1           1          16          12           1
 AtmWgt=   1.0078250   1.0078250   1.0078250   1.0078250   1.0078250   1.0078250   1.0078250  15.9949146  12.0000000   1.0078250
 NucSpn=           1           1           1           1           1           1           1           0           0           1
 AtZEff=   0.0000000   0.0000000   0.0000000   0.0000000   0.0000000   0.0000000   0.0000000   0.0000000   0.0000000   0.0000000
 NQMom=    0.0000000   0.0000000   0.0000000   0.0000000   0.0000000   0.0000000   0.0000000   0.0000000   0.0000000   0.0000000
 NMagM=    2.7928460   2.7928460   2.7928460   2.7928460   2.7928460   2.7928460   2.7928460   0.0000000   0.0000000   2.7928460
 AtZNuc=   1.0000000   1.0000000   1.0000000   1.0000000   1.0000000   1.0000000   1.0000000   8.0000000   6.0000000   1.0000000

  Atom        21          22          23          24          25          26          27          28          29          30
 IAtWgt=           1           1          12           1           1           1          12           1           1           1
 AtmWgt=   1.0078250   1.0078250  12.0000000   1.0078250   1.0078250   1.0078250  12.0000000   1.0078250   1.0078250   1.0078250
 NucSpn=           1           1           0           1           1           1           0           1           1           1
 AtZEff=   0.0000000   0.0000000   0.0000000   0.0000000   0.0000000   0.0000000   0.0000000   0.0000000   0.0000000   0.0000000
 NQMom=    0.0000000   0.0000000   0.0000000   0.0000000   0.0000000   0.0000000   0.0000000   0.0000000   0.0000000   0.0000000
 NMagM=    2.7928460   2.7928460   0.0000000   2.7928460   2.7928460   2.7928460   0.0000000   2.7928460   2.7928460   2.7928460
 AtZNuc=   1.0000000   1.0000000   6.0000000   1.0000000   1.0000000   1.0000000   6.0000000   1.0000000   1.0000000   1.0000000

  Atom        31          32          33          34          35          36
 IAtWgt=          12          16          12           1           1           1
 AtmWgt=  12.0000000  15.9949146  12.0000000   1.0078250   1.0078250   1.0078250
 NucSpn=           0           0           0           1           1           1
 AtZEff=   0.0000000   0.0000000   0.0000000   0.0000000   0.0000000   0.0000000
 NQMom=    0.0000000   0.0000000   0.0000000   0.0000000   0.0000000   0.0000000
 NMagM=    0.0000000   0.0000000   0.0000000   2.7928460   2.7928460   2.7928460
 AtZNuc=   6.0000000   8.0000000   6.0000000   1.0000000   1.0000000   1.0000000
 Leave Link  101 at Tue Oct 24 12:49:09 2017, MaxMem=  8053063680 cpu:         3.3
 (Enter /share/apps//g09/l103.exe)

 GradGradGradGradGradGradGradGradGradGradGradGradGradGradGradGradGradGrad
 Berny optimization.
 Initialization pass.
                           ----------------------------
                           !    Initial Parameters    !
                           ! (Angstroms and Degrees)  !
 --------------------------                            --------------------------
 ! Name  Definition              Value          Derivative Info.                !
 --------------------------------------------------------------------------------
 ! R1    R(1,2)                  1.5409         estimate D2E/DX2                !
 ! R2    R(1,10)                 1.4868         estimate D2E/DX2                !
 ! R3    R(1,11)                 1.0951         estimate D2E/DX2                !
 ! R4    R(1,12)                 1.095          estimate D2E/DX2                !
 ! R5    R(2,3)                  1.5367         estimate D2E/DX2                !
 ! R6    R(2,7)                  1.4606         estimate D2E/DX2                !
 ! R7    R(2,13)                 1.0963         estimate D2E/DX2                !
 ! R8    R(3,4)                  1.5422         estimate D2E/DX2                !
 ! R9    R(3,9)                  1.4344         estimate D2E/DX2                !
 ! R10   R(3,14)                 1.101          estimate D2E/DX2                !
 ! R11   R(4,5)                  1.5585         estimate D2E/DX2                !
 ! R12   R(4,8)                  1.4289         estimate D2E/DX2                !
 ! R13   R(4,15)                 1.1033         estimate D2E/DX2                !
 ! R14   R(5,6)                  1.5328         estimate D2E/DX2                !
 ! R15   R(5,16)                 1.0999         estimate D2E/DX2                !
 ! R16   R(5,18)                 1.4181         estimate D2E/DX2                !
 ! R17   R(6,7)                  1.3508         estimate D2E/DX2                !
 ! R18   R(6,10)                 1.6739         estimate D2E/DX2                !
 ! R19   R(6,17)                 1.0969         estimate D2E/DX2                !
 ! R20   R(8,27)                 1.4416         estimate D2E/DX2                !
 ! R21   R(9,31)                 1.402          estimate D2E/DX2                !
 ! R22   R(10,19)                1.4736         estimate D2E/DX2                !
 ! R23   R(18,23)                1.4434         estimate D2E/DX2                !
 ! R24   R(19,20)                1.0943         estimate D2E/DX2                !
 ! R25   R(19,21)                1.0951         estimate D2E/DX2                !
 ! R26   R(19,22)                1.0948         estimate D2E/DX2                !
 ! R27   R(23,24)                1.1009         estimate D2E/DX2                !
 ! R28   R(23,25)                1.0996         estimate D2E/DX2                !
 ! R29   R(23,26)                1.0948         estimate D2E/DX2                !
 ! R30   R(27,28)                1.0988         estimate D2E/DX2                !
 ! R31   R(27,29)                1.1013         estimate D2E/DX2                !
 ! R32   R(27,30)                1.0957         estimate D2E/DX2                !
 ! R33   R(31,32)                1.2094         estimate D2E/DX2                !
 ! R34   R(31,33)                1.4973         estimate D2E/DX2                !
 ! R35   R(33,34)                1.0958         estimate D2E/DX2                !
 ! R36   R(33,35)                1.1            estimate D2E/DX2                !
 ! R37   R(33,36)                1.0939         estimate D2E/DX2                !
 ! A1    A(2,1,10)             102.8699         estimate D2E/DX2                !
 ! A2    A(2,1,11)             112.698          estimate D2E/DX2                !
 ! A3    A(2,1,12)             112.7108         estimate D2E/DX2                !
 ! A4    A(10,1,11)            109.1327         estimate D2E/DX2                !
 ! A5    A(10,1,12)            105.9485         estimate D2E/DX2                !
 ! A6    A(11,1,12)            112.7152         estimate D2E/DX2                !
 ! A7    A(1,2,3)              116.0263         estimate D2E/DX2                !
 ! A8    A(1,2,7)              102.2338         estimate D2E/DX2                !
 ! A9    A(1,2,13)             112.0297         estimate D2E/DX2                !
 ! A10   A(3,2,7)              108.8387         estimate D2E/DX2                !
 ! A11   A(3,2,13)             110.3277         estimate D2E/DX2                !
 ! A12   A(7,2,13)             106.6329         estimate D2E/DX2                !
 ! A13   A(2,3,4)              112.6498         estimate D2E/DX2                !
 ! A14   A(2,3,9)              109.4554         estimate D2E/DX2                !
 ! A15   A(2,3,14)             106.0453         estimate D2E/DX2                !
 ! A16   A(4,3,9)              109.3662         estimate D2E/DX2                !
 ! A17   A(4,3,14)             110.369          estimate D2E/DX2                !
 ! A18   A(9,3,14)             108.8526         estimate D2E/DX2                !
 ! A19   A(3,4,5)              110.9358         estimate D2E/DX2                !
 ! A20   A(3,4,8)              111.9033         estimate D2E/DX2                !
 ! A21   A(3,4,15)             109.769          estimate D2E/DX2                !
 ! A22   A(5,4,8)              106.093          estimate D2E/DX2                !
 ! A23   A(5,4,15)             108.0369         estimate D2E/DX2                !
 ! A24   A(8,4,15)             109.9782         estimate D2E/DX2                !
 ! A25   A(4,5,6)              112.9055         estimate D2E/DX2                !
 ! A26   A(4,5,16)             106.0516         estimate D2E/DX2                !
 ! A27   A(4,5,18)             117.6668         estimate D2E/DX2                !
 ! A28   A(6,5,16)             109.1963         estimate D2E/DX2                !
 ! A29   A(6,5,18)             106.2327         estimate D2E/DX2                !
 ! A30   A(16,5,18)            104.2582         estimate D2E/DX2                !
 ! A31   A(5,6,7)              117.1932         estimate D2E/DX2                !
 ! A32   A(5,6,10)             110.1194         estimate D2E/DX2                !
 ! A33   A(5,6,17)             114.4784         estimate D2E/DX2                !
 ! A34   A(7,6,10)              96.9054         estimate D2E/DX2                !
 ! A35   A(7,6,17)             111.63           estimate D2E/DX2                !
 ! A36   A(10,6,17)            104.2304         estimate D2E/DX2                !
 ! A37   A(2,7,6)              105.4783         estimate D2E/DX2                !
 ! A38   A(4,8,27)             114.6318         estimate D2E/DX2                !
 ! A39   A(3,9,31)             114.9049         estimate D2E/DX2                !
 ! A40   A(1,10,6)             103.9467         estimate D2E/DX2                !
 ! A41   A(1,10,19)            118.0285         estimate D2E/DX2                !
 ! A42   A(6,10,19)            122.9769         estimate D2E/DX2                !
 ! A43   A(5,18,23)            119.3522         estimate D2E/DX2                !
 ! A44   A(10,19,20)           105.7351         estimate D2E/DX2                !
 ! A45   A(10,19,21)           106.2467         estimate D2E/DX2                !
 ! A46   A(10,19,22)           109.6571         estimate D2E/DX2                !
 ! A47   A(20,19,21)           109.8419         estimate D2E/DX2                !
 ! A48   A(20,19,22)           112.3784         estimate D2E/DX2                !
 ! A49   A(21,19,22)           112.5746         estimate D2E/DX2                !
 ! A50   A(18,23,24)           111.5738         estimate D2E/DX2                !
 ! A51   A(18,23,25)           112.6766         estimate D2E/DX2                !
 ! A52   A(18,23,26)           104.6446         estimate D2E/DX2                !
 ! A53   A(24,23,25)           110.1562         estimate D2E/DX2                !
 ! A54   A(24,23,26)           108.4812         estimate D2E/DX2                !
 ! A55   A(25,23,26)           109.0672         estimate D2E/DX2                !
 ! A56   A(8,27,28)            111.3256         estimate D2E/DX2                !
 ! A57   A(8,27,29)            110.4798         estimate D2E/DX2                !
 ! A58   A(8,27,30)            106.0498         estimate D2E/DX2                !
 ! A59   A(28,27,29)           110.1178         estimate D2E/DX2                !
 ! A60   A(28,27,30)           109.6083         estimate D2E/DX2                !
 ! A61   A(29,27,30)           109.1597         estimate D2E/DX2                !
 ! A62   A(9,31,32)            122.1516         estimate D2E/DX2                !
 ! A63   A(9,31,33)            110.4297         estimate D2E/DX2                !
 ! A64   A(32,31,33)           127.4117         estimate D2E/DX2                !
 ! A65   A(31,33,34)           111.5441         estimate D2E/DX2                !
 ! A66   A(31,33,35)           108.7386         estimate D2E/DX2                !
 ! A67   A(31,33,36)           109.3799         estimate D2E/DX2                !
 ! A68   A(34,33,35)           107.7558         estimate D2E/DX2                !
 ! A69   A(34,33,36)           110.9004         estimate D2E/DX2                !
 ! A70   A(35,33,36)           108.4348         estimate D2E/DX2                !
 ! D1    D(10,1,2,3)            92.5223         estimate D2E/DX2                !
 ! D2    D(10,1,2,7)           -25.744          estimate D2E/DX2                !
 ! D3    D(10,1,2,13)         -139.5533         estimate D2E/DX2                !
 ! D4    D(11,1,2,3)           -24.8643         estimate D2E/DX2                !
 ! D5    D(11,1,2,7)          -143.1306         estimate D2E/DX2                !
 ! D6    D(11,1,2,13)          103.0601         estimate D2E/DX2                !
 ! D7    D(12,1,2,3)          -153.8265         estimate D2E/DX2                !
 ! D8    D(12,1,2,7)            87.9072         estimate D2E/DX2                !
 ! D9    D(12,1,2,13)          -25.902          estimate D2E/DX2                !
 ! D10   D(2,1,10,6)            -3.1987         estimate D2E/DX2                !
 ! D11   D(2,1,10,19)         -143.3337         estimate D2E/DX2                !
 ! D12   D(11,1,10,6)          116.6838         estimate D2E/DX2                !
 ! D13   D(11,1,10,19)         -23.4511         estimate D2E/DX2                !
 ! D14   D(12,1,10,6)         -121.6998         estimate D2E/DX2                !
 ! D15   D(12,1,10,19)          98.1653         estimate D2E/DX2                !
 ! D16   D(1,2,3,4)            -54.5446         estimate D2E/DX2                !
 ! D17   D(1,2,3,9)             67.3581         estimate D2E/DX2                !
 ! D18   D(1,2,3,14)          -175.3718         estimate D2E/DX2                !
 ! D19   D(7,2,3,4)             60.0227         estimate D2E/DX2                !
 ! D20   D(7,2,3,9)           -178.0747         estimate D2E/DX2                !
 ! D21   D(7,2,3,14)           -60.8045         estimate D2E/DX2                !
 ! D22   D(13,2,3,4)           176.6972         estimate D2E/DX2                !
 ! D23   D(13,2,3,9)           -61.4001         estimate D2E/DX2                !
 ! D24   D(13,2,3,14)           55.87           estimate D2E/DX2                !
 ! D25   D(1,2,7,6)             52.9521         estimate D2E/DX2                !
 ! D26   D(3,2,7,6)            -70.303          estimate D2E/DX2                !
 ! D27   D(13,2,7,6)           170.6842         estimate D2E/DX2                !
 ! D28   D(2,3,4,5)            -39.7082         estimate D2E/DX2                !
 ! D29   D(2,3,4,8)             78.5667         estimate D2E/DX2                !
 ! D30   D(2,3,4,15)          -159.0343         estimate D2E/DX2                !
 ! D31   D(9,3,4,5)           -161.6613         estimate D2E/DX2                !
 ! D32   D(9,3,4,8)            -43.3863         estimate D2E/DX2                !
 ! D33   D(9,3,4,15)            79.0126         estimate D2E/DX2                !
 ! D34   D(14,3,4,5)            78.6121         estimate D2E/DX2                !
 ! D35   D(14,3,4,8)          -163.113          estimate D2E/DX2                !
 ! D36   D(14,3,4,15)          -40.714          estimate D2E/DX2                !
 ! D37   D(2,3,9,31)            92.4662         estimate D2E/DX2                !
 ! D38   D(4,3,9,31)          -143.68           estimate D2E/DX2                !
 ! D39   D(14,3,9,31)          -23.0247         estimate D2E/DX2                !
 ! D40   D(3,4,5,6)             30.971          estimate D2E/DX2                !
 ! D41   D(3,4,5,16)           150.5091         estimate D2E/DX2                !
 ! D42   D(3,4,5,18)           -93.3735         estimate D2E/DX2                !
 ! D43   D(8,4,5,6)            -90.7696         estimate D2E/DX2                !
 ! D44   D(8,4,5,16)            28.7685         estimate D2E/DX2                !
 ! D45   D(8,4,5,18)           144.8859         estimate D2E/DX2                !
 ! D46   D(15,4,5,6)           151.331          estimate D2E/DX2                !
 ! D47   D(15,4,5,16)          -89.1309         estimate D2E/DX2                !
 ! D48   D(15,4,5,18)           26.9865         estimate D2E/DX2                !
 ! D49   D(3,4,8,27)            98.7014         estimate D2E/DX2                !
 ! D50   D(5,4,8,27)          -140.1791         estimate D2E/DX2                !
 ! D51   D(15,4,8,27)          -23.5781         estimate D2E/DX2                !
 ! D52   D(4,5,6,7)            -46.8047         estimate D2E/DX2                !
 ! D53   D(4,5,6,10)            62.5958         estimate D2E/DX2                !
 ! D54   D(4,5,6,17)           179.6243         estimate D2E/DX2                !
 ! D55   D(16,5,6,7)          -164.5119         estimate D2E/DX2                !
 ! D56   D(16,5,6,10)          -55.1114         estimate D2E/DX2                !
 ! D57   D(16,5,6,17)           61.9171         estimate D2E/DX2                !
 ! D58   D(18,5,6,7)            83.5881         estimate D2E/DX2                !
 ! D59   D(18,5,6,10)         -167.0114         estimate D2E/DX2                !
 ! D60   D(18,5,6,17)          -49.9829         estimate D2E/DX2                !
 ! D61   D(4,5,18,23)           49.4053         estimate D2E/DX2                !
 ! D62   D(6,5,18,23)          -78.2092         estimate D2E/DX2                !
 ! D63   D(16,5,18,23)         166.4927         estimate D2E/DX2                !
 ! D64   D(5,6,7,2)             65.2922         estimate D2E/DX2                !
 ! D65   D(10,6,7,2)           -51.5652         estimate D2E/DX2                !
 ! D66   D(17,6,7,2)          -159.8898         estimate D2E/DX2                !
 ! D67   D(5,6,10,1)           -89.0457         estimate D2E/DX2                !
 ! D68   D(5,6,10,19)           48.5416         estimate D2E/DX2                !
 ! D69   D(7,6,10,1)            33.272          estimate D2E/DX2                !
 ! D70   D(7,6,10,19)          170.8593         estimate D2E/DX2                !
 ! D71   D(17,6,10,1)          147.7141         estimate D2E/DX2                !
 ! D72   D(17,6,10,19)         -74.6986         estimate D2E/DX2                !
 ! D73   D(4,8,27,28)          -65.7059         estimate D2E/DX2                !
 ! D74   D(4,8,27,29)           56.9745         estimate D2E/DX2                !
 ! D75   D(4,8,27,30)          175.1388         estimate D2E/DX2                !
 ! D76   D(3,9,31,32)           -3.1117         estimate D2E/DX2                !
 ! D77   D(3,9,31,33)          175.9881         estimate D2E/DX2                !
 ! D78   D(1,10,19,20)         179.9972         estimate D2E/DX2                !
 ! D79   D(1,10,19,21)         -63.2967         estimate D2E/DX2                !
 ! D80   D(1,10,19,22)          58.6204         estimate D2E/DX2                !
 ! D81   D(6,10,19,20)          47.8615         estimate D2E/DX2                !
 ! D82   D(6,10,19,21)         164.5676         estimate D2E/DX2                !
 ! D83   D(6,10,19,22)         -73.5153         estimate D2E/DX2                !
 ! D84   D(5,18,23,24)         -65.0193         estimate D2E/DX2                !
 ! D85   D(5,18,23,25)          59.5075         estimate D2E/DX2                !
 ! D86   D(5,18,23,26)         177.8745         estimate D2E/DX2                !
 ! D87   D(9,31,33,34)          37.2034         estimate D2E/DX2                !
 ! D88   D(9,31,33,35)         -81.4916         estimate D2E/DX2                !
 ! D89   D(9,31,33,36)         160.259          estimate D2E/DX2                !
 ! D90   D(32,31,33,34)       -143.7561         estimate D2E/DX2                !
 ! D91   D(32,31,33,35)         97.5488         estimate D2E/DX2                !
 ! D92   D(32,31,33,36)        -20.7006         estimate D2E/DX2                !
 --------------------------------------------------------------------------------
 Trust Radius=3.00D-01 FncErr=1.00D-07 GrdErr=1.00D-06
 Number of steps in this run=    216 maximum allowed number of steps=    216.
 GradGradGradGradGradGradGradGradGradGradGradGradGradGradGradGradGradGrad

 Leave Link  103 at Tue Oct 24 12:49:10 2017, MaxMem=  8053063680 cpu:         0.1
 (Enter /share/apps//g09/l202.exe)
                          Input orientation:                          
 ---------------------------------------------------------------------
 Center     Atomic      Atomic             Coordinates (Angstroms)
 Number     Number       Type             X           Y           Z
 ---------------------------------------------------------------------
      1          6           0       -1.478650   -0.492880    2.656660
      2          6           0       -0.117040   -1.213610    2.628340
      3          6           0        1.123860   -0.308740    2.574240
      4          6           0        1.081870    0.687090    1.397420
      5          6           0        0.504060    0.012080    0.117080
      6          6           0       -0.523360   -1.081210    0.430980
      7          8           0       -0.197490   -1.978500    1.386630
      8          8           0        0.233780    1.803370    1.673760
      9          8           0        1.240830    0.415910    3.806600
     10          8           0       -1.845070   -0.420560    1.217510
     11          1           0       -1.410980    0.522500    3.061280
     12          1           0       -2.262160   -1.088150    3.137080
     13          1           0       -0.021090   -1.943420    3.440820
     14          1           0        1.988290   -0.983320    2.474760
     15          1           0        2.102800    1.036990    1.168040
     16          1           0        0.015290    0.814080   -0.455350
     17          1           0       -0.951870   -1.569470   -0.452840
     18          8           0        1.424090   -0.559550   -0.798260
     19          6           0       -2.541270    0.787230    0.740080
     20          1           0       -2.710590    0.628940   -0.329420
     21          1           0       -3.500300    0.816830    1.267850
     22          1           0       -1.925010    1.670160    0.938340
     23          6           0        2.448610   -1.450430   -0.308280
     24          1           0        3.156580   -0.928120    0.353580
     25          1           0        2.034970   -2.333140    0.200500
     26          1           0        2.986280   -1.773940   -1.205370
     27          6           0        0.925310    2.988180    2.116890
     28          1           0        1.401230    2.830910    3.094660
     29          1           0        1.678230    3.295380    1.374150
     30          1           0        0.162740    3.770530    2.200690
     31          6           0        2.039850   -0.200040    4.780150
     32          8           0        2.540630   -1.287360    4.608060
     33          6           0        2.172010    0.682310    5.982580
     34          1           0        1.239350    1.217560    6.193390
     35          1           0        2.952320    1.432450    5.786400
     36          1           0        2.479370    0.080240    6.842590
 ---------------------------------------------------------------------
                    Distance matrix (angstroms):
                    1          2          3          4          5
     1  C    0.000000
     2  C    1.540855   0.000000
     3  C    2.610318   1.536733   0.000000
     4  C    3.087762   2.562267   1.542189   0.000000
     5  C    3.261225   2.862605   2.554352   1.558452   0.000000
     6  C    2.492461   2.238530   2.811335   2.576365   1.532778
     7  O    2.336967   1.460607   2.438131   2.956729   2.462994
     8  O    3.028411   3.183782   2.462542   1.428881   2.388519
     9  O    3.089309   2.426405   1.434403   2.429600   3.783975
    10  O    1.486824   2.367585   3.266155   3.134682   2.629931
    11  H    1.095122   2.208120   2.711749   3.001636   3.549115
    12  H    1.095006   2.208188   3.519858   4.166585   4.240622
    13  H    2.200785   1.096336   2.175787   3.508787   3.891916
    14  H    3.506179   2.123449   1.100997   2.184612   2.958448
    15  H    4.169326   3.482150   2.178695   1.103333   2.170467
    16  H    3.691153   3.692991   3.415855   2.141606   1.099898
    17  H    3.332497   3.212047   3.880890   3.556912   2.223925
    18  O    4.512961   3.813720   3.395114   2.547987   1.418120
    19  C    2.537937   3.666848   4.242460   3.683649   3.203595
    20  H    3.419478   4.343942   4.900356   4.167507   3.303612
    21  H    2.780504   4.173735   4.935222   4.585837   4.243441
    22  H    2.798321   3.800130   3.985953   3.196640   3.053535
    23  C    5.013097   3.906710   3.371549   3.057185   2.470049
    24  H    5.194128   3.996577   3.073583   2.828944   2.824141
    25  H    4.665276   3.432040   3.250071   3.385677   2.801910
    26  H    6.040860   4.964061   4.461039   4.056841   3.331690
    27  C    4.264757   4.359256   3.334407   2.416022   3.610244
    28  H    4.419630   4.345197   3.194554   2.752922   4.197225
    29  H    5.095256   5.012682   3.838909   2.675699   3.706610
    30  H    4.591158   5.010271   4.207581   3.316270   4.310902
    31  C    4.120049   3.210885   2.391002   3.625960   4.914048
    32  O    4.538036   3.314806   2.664837   4.041614   5.099516
    33  C    5.076429   4.481650   3.701024   4.712974   6.134766
    34  H    4.777195   4.523269   3.929526   4.827787   6.238219
    35  H    5.756359   5.137699   4.085704   4.828798   6.336609
    36  H    5.789335   5.116180   4.495278   5.654304   7.009920
                    6          7          8          9         10
     6  C    0.000000
     7  O    1.350773   0.000000
     8  O    3.230877   3.817195   0.000000
     9  O    4.092499   3.695703   2.736458   0.000000
    10  O    1.673919   2.273829   3.078254   4.114104   0.000000
    11  H    3.205968   3.245306   2.504211   2.756621   2.115959
    12  H    3.216590   2.849502   4.090466   3.870580   2.074702
    13  H    3.170933   2.062049   4.150409   2.700495   3.254092
    14  H    3.239599   2.636673   3.389033   2.071313   4.073331
    15  H    3.453512   3.798986   2.082385   2.844421   4.208631
    16  H    2.160521   3.352114   2.357868   4.452494   2.789935
    17  H    1.096885   2.029789   4.159837   5.185798   2.215371
    18  O    2.361297   3.068662   3.620927   4.710610   3.843183
    19  C    2.767412   3.682471   3.099226   4.883206   1.473564
    20  H    2.878680   4.007398   3.749844   5.724139   2.059992
    21  H    3.628371   4.328572   3.883475   5.392986   2.067234
    22  H    3.129229   4.061774   2.284505   4.452258   2.110790
    23  C    3.084710   3.186444   4.406946   4.676986   4.671654
    24  H    3.683936   3.663369   4.212680   4.171314   5.101029
    25  H    2.857534   2.552754   4.746103   4.603465   4.443758
    26  H    3.933839   4.110560   5.353764   5.741244   5.571708
    27  C    4.636903   5.144110   1.441649   3.093743   4.483681
    28  H    5.109200   5.348242   2.106593   2.522858   4.963287
    29  H    4.989099   5.597525   2.098165   3.794665   5.123123
    30  H    5.209797   5.817543   2.037749   3.872299   4.750072
    31  C    5.124625   4.436732   4.114025   1.402008   5.275759
    32  O    5.184451   4.283992   4.846059   2.287564   5.610841
    33  C    6.418355   5.815255   4.855867   2.381796   6.329230
    34  H    6.449563   5.948466   4.667055   2.517819   6.079183
    35  H    6.861440   6.396394   4.943870   2.807518   6.879197
    36  H    7.174545   6.416501   5.893102   3.296042   7.112883
                   11         12         13         14         15
    11  H    0.000000
    12  H    1.823306   0.000000
    13  H    2.855977   2.417879   0.000000
    14  H    3.763846   4.303020   2.427483   0.000000
    15  H    4.024389   5.238913   4.308048   2.408793   0.000000
    16  H    3.806041   4.659486   4.773392   3.963448   2.653824
    17  H    4.115357   3.851760   4.020793   4.190341   4.330346
    18  O    4.909634   5.418003   4.687584   3.348218   2.622198
    19  C    2.595305   3.056233   4.593664   5.163417   4.670430
    20  H    3.632790   3.894369   5.297656   5.704584   5.057432
    21  H    2.769166   2.942101   4.944257   5.900999   5.608312
    22  H    2.467433   3.543501   4.790123   4.971465   4.083738
    23  C    5.490248   5.847487   4.516438   2.859265   2.913136
    24  H    5.504411   6.093950   4.545269   2.422262   2.373911
    25  H    5.311621   5.351526   3.857323   2.645081   3.506923
    26  H    6.543228   6.846408   5.537154   3.894152   3.783509
    27  C    3.525578   5.274203   5.193182   4.126840   2.468591
    28  H    3.638461   5.364817   4.993701   3.908614   2.724374
    29  H    4.480903   6.152230   5.882503   4.428855   2.307177
    30  H    3.710379   5.510330   5.849867   5.099690   3.507483
    31  C    3.922347   4.689958   3.013412   2.435366   3.818579
    32  O    4.613387   5.026953   2.890549   2.224520   4.174690
    33  C    4.625727   5.558171   4.262005   3.887528   4.828083
    34  H    4.161427   5.188246   4.376888   4.385544   5.102185
    35  H    5.224239   6.368918   5.073402   4.210969   4.712465
    36  H    5.443227   6.130093   4.681831   4.522196   5.766948
                   16         17         18         19         20
    16  H    0.000000
    17  H    2.572298   0.000000
    18  O    1.997289   2.604696   0.000000
    19  C    2.822370   3.082740   4.461433   0.000000
    20  H    2.735061   2.818037   4.327574   1.094329   0.000000
    21  H    3.915201   3.892261   5.514785   1.095060   1.791708
    22  H    2.537717   3.657538   4.382221   1.094828   1.818926
    23  C    3.327263   3.405632   1.443395   5.568221   5.562515
    24  H    3.682028   4.235682   2.112842   5.962994   6.108568
    25  H    3.796609   3.151390   2.125163   5.565054   5.619170
    26  H    4.010880   4.014615   2.020129   6.395168   6.244634
    27  C    3.488734   5.558731   4.618795   4.330931   4.976968
    28  H    4.311729   6.122514   5.162419   5.026329   5.786196
    29  H    3.502755   5.824267   4.432205   4.949449   5.410526
    30  H    3.977045   6.066233   5.416115   4.283122   4.952481
    31  C    5.704186   6.181417   5.623795   6.187368   7.025781
    32  O    6.035852   6.155473   5.568183   6.714976   7.458299
    33  C    6.790858   7.499585   6.934075   7.050519   7.980224
    34  H    6.772508   7.532686   7.216330   6.649576   7.648238
    35  H    6.925891   7.948732   7.047077   7.487402   8.373615
    36  H    7.737580   8.229110   7.739867   7.933933   8.869864
                   21         22         23         24         25
    21  H    0.000000
    22  H    1.821617   0.000000
    23  C    6.558520   5.515496   0.000000
    24  H    6.942247   5.737208   1.100949   0.000000
    25  H    6.457613   5.679107   1.099605   1.804307   0.000000
    26  H    7.409766   6.370093   1.094769   1.781780   1.787223
    27  C    5.002165   3.354174   5.282343   4.839962   5.763709
    28  H    5.605243   4.130488   5.568382   4.972432   5.953587
    29  H    5.742097   3.976759   5.093797   4.589666   5.760638
    30  H    4.797124   3.219283   6.227243   5.869600   6.690351
    31  C    6.638037   5.829002   5.255728   4.622955   5.052062
    32  O    7.216471   6.492743   4.919904   4.313821   4.558062
    33  C    7.377118   6.573110   6.648309   5.937045   6.522589
    34  H    6.847321   6.150900   7.131072   6.510230   7.011078
    35  H    7.901429   6.881028   6.760906   5.927018   6.798785
    36  H    8.208334   7.535687   7.312923   6.601716   7.080908
                   26         27         28         29         30
    26  H    0.000000
    27  C    6.161396   0.000000
    28  H    6.496713   1.098757   0.000000
    29  H    5.836345   1.101328   1.803501   0.000000
    30  H    7.093291   1.095722   1.793300   1.790432   0.000000
    31  C    6.260938   4.301151   3.526382   4.893829   5.093386
    32  O    5.850755   5.205327   4.533074   5.674805   6.085396
    33  C    7.639557   4.670638   3.681123   5.320675   5.279864
    34  H    8.169607   4.455510   3.497318   5.266405   4.859876
    35  H    7.692005   4.471506   3.406910   4.955983   5.109373
    36  H    8.274334   5.762244   4.772374   6.393965   6.366494
                   31         32         33         34         35
    31  C    0.000000
    32  O    1.209405   0.000000
    33  C    1.497279   2.429977   0.000000
    34  H    2.155838   3.237472   1.095805   0.000000
    35  H    2.123715   2.992547   1.100037   1.773721   0.000000
    36  H    2.127297   2.620536   1.093881   1.803499   1.779801
                   36
    36  H    0.000000
 Stoichiometry    C11H19O6(1+)
 Framework group  C1[X(C11H19O6)]
 Deg. of freedom   102
 Full point group                 C1      NOp   1
 Largest Abelian subgroup         C1      NOp   1
 Largest concise Abelian subgroup C1      NOp   1
                         Standard orientation:                         
 ---------------------------------------------------------------------
 Center     Atomic      Atomic             Coordinates (Angstroms)
 Number     Number       Type             X           Y           Z
 ---------------------------------------------------------------------
      1          6           0       -0.479383   -1.398737   -1.552373
      2          6           0        0.071203    0.036787   -1.450583
      3          6           0        0.712012    0.419528   -0.107295
      4          6           0       -0.229963    0.179338    1.089926
      5          6           0       -1.693477    0.581820    0.736504
      6          6           0       -2.025427    0.382492   -0.746563
      7          8           0       -1.130312    0.843755   -1.646892
      8          8           0       -0.277333   -1.199247    1.462698
      9          8           0        1.918611   -0.333600    0.078253
     10          8           0       -1.902013   -1.236985   -1.151616
     11          1           0        0.012264   -2.090003   -0.859750
     12          1           0       -0.497322   -1.772670   -2.581397
     13          1           0        0.749119    0.276848   -2.278082
     14          1           0        0.967731    1.487560   -0.185462
     15          1           0        0.094669    0.791143    1.948793
     16          1           0       -2.342244   -0.067305    1.342734
     17          1           0       -3.052201    0.652014   -1.022696
     18          8           0       -2.111892    1.896854    1.063121
     19          6           0       -2.524543   -2.311766   -0.358716
     20          1           0       -3.554768   -1.989399   -0.179073
     21          1           0       -2.519583   -3.203528   -0.994241
     22          1           0       -1.964525   -2.455158    0.571051
     23          6           0       -1.288264    3.017689    0.677434
     24          1           0       -0.317911    3.004873    1.197375
     25          1           0       -1.134808    3.076726   -0.409809
     26          1           0       -1.847518    3.898851    1.008048
     27          6           0        0.563857   -1.548785    2.580095
     28          1           0        1.627557   -1.428126    2.332607
     29          1           0        0.308211   -0.938596    3.460570
     30          1           0        0.354448   -2.601756    2.799202
     31          6           0        3.084988    0.299064   -0.374435
     32          8           0        3.060299    1.372322   -0.931363
     33          6           0        4.289277   -0.527530   -0.045384
     34          1           0        4.083429   -1.598582   -0.151516
     35          1           0        4.569803   -0.342009    1.001978
     36          1           0        5.123085   -0.225088   -0.685594
 ---------------------------------------------------------------------
 Rotational constants (GHZ):      0.6194628      0.3740318      0.3451693
 Leave Link  202 at Tue Oct 24 12:49:10 2017, MaxMem=  8053063680 cpu:         0.3
 (Enter /share/apps//g09/l301.exe)
 Standard basis: 6-311+G(d,p) (5D, 7F)
 Ernie: Thresh=  0.10000D-02 Tol=  0.10000D-05 Strict=F.
 There are   505 symmetry adapted cartesian basis functions of A   symmetry.
 There are   488 symmetry adapted basis functions of A   symmetry.
   488 basis functions,   764 primitive gaussians,   505 cartesian basis functions
    66 alpha electrons       66 beta electrons
       nuclear repulsion energy      1446.7964106061 Hartrees.
 IExCor= 1009 DFT=T Ex+Corr=PBE1PBE ExCW=0 ScaHFX=  0.250000
 ScaDFX=  0.750000  0.750000  1.000000  1.000000 ScalE2=  1.000000  1.000000
 IRadAn=      0 IRanWt=     -1 IRanGd=            0 ICorTp=0 IEmpDi=131
 NAtoms=   36 NActive=   36 NUniq=   36 SFac= 1.00D+00 NAtFMM=   60 NAOKFM=F Big=F
 Integral buffers will be    131072 words long.
 Raffenetti 2 integral format.
 Two-electron integral symmetry is turned on.
 R6Disp:  Grimme-D3 Dispersion energy=       -0.0269992965 Hartrees.
 Nuclear repulsion after empirical dispersion term =     1446.7694113096 Hartrees.
 Leave Link  301 at Tue Oct 24 12:49:10 2017, MaxMem=  8053063680 cpu:         0.6
 (Enter /share/apps//g09/l302.exe)
 NPDir=0 NMtPBC=     1 NCelOv=     1 NCel=       1 NClECP=     1 NCelD=      1
         NCelK=      1 NCelE2=     1 NClLst=     1 CellRange=     0.0.
 One-electron integrals computed using PRISM.
 NBasis=   488 RedAO= T EigKep=  1.51D-06  NBF=   488
 NBsUse=   488 1.00D-06 EigRej= -1.00D+00 NBFU=   488
 Precomputing XC quadrature grid using
 IXCGrd= 4 IRadAn=           0 IRanWt=          -1 IRanGd=           0 AccXCQ= 0.00D+00.
 Generated NRdTot=       0 NPtTot=           0 NUsed=           0 NTot=          32
 NSgBfM=   505   505   505   505   505 MxSgAt=    36 MxSgA2=    36.
 Leave Link  302 at Tue Oct 24 12:49:10 2017, MaxMem=  8053063680 cpu:         4.2
 (Enter /share/apps//g09/l303.exe)
 DipDrv:  MaxL=1.
 Leave Link  303 at Tue Oct 24 12:49:11 2017, MaxMem=  8053063680 cpu:         1.0
 (Enter /share/apps//g09/l401.exe)
 ExpMin= 4.38D-02 ExpMax= 8.59D+03 ExpMxC= 1.30D+03 IAcc=2 IRadAn=         4 AccDes= 0.00D+00
 Harris functional with IExCor= 1009 and IRadAn=       4 diagonalized for initial guess.
 HarFok:  IExCor= 1009 AccDes= 0.00D+00 IRadAn=         4 IDoV= 1 UseB2=F ITyADJ=14
 ICtDFT=  3500011 ScaDFX=  1.000000  1.000000  1.000000  1.000000
 FoFCou: FMM=F IPFlag=           0 FMFlag=      100000 FMFlg1=           0
         NFxFlg=           0 DoJE=T BraDBF=F KetDBF=T FulRan=T
         wScrn=  0.000000 ICntrl=     500 IOpCl=  0 I1Cent=   200000004 NGrid=           0
         NMat0=    1 NMatS0=      1 NMatT0=    0 NMatD0=    1 NMtDS0=    0 NMtDT0=    0
 Petite list used in FoFCou.
 Harris En= -881.094088760898    
 JPrj=0 DoOrth=F DoCkMO=F.
 Leave Link  401 at Tue Oct 24 12:49:12 2017, MaxMem=  8053063680 cpu:        13.8
 (Enter /share/apps//g09/l502.exe)
 Closed shell SCF:
 Using DIIS extrapolation, IDIIS=  1040.
 Integral symmetry usage will be decided dynamically.
 Keep R1 ints in memory in canonical form, NReq=7183782884.
 IVT=      792443 IEndB=      792443 NGot=  8053063680 MDV=   934057652
 LenX=   934057652 LenY=   933802122
 Requested convergence on RMS density matrix=1.00D-08 within 128 cycles.
 Requested convergence on MAX density matrix=1.00D-06.
 Requested convergence on             energy=1.00D-06.
 No special actions if energy rises.
 FoFCou: FMM=F IPFlag=           0 FMFlag=           0 FMFlg1=           0
         NFxFlg=           0 DoJE=F BraDBF=F KetDBF=F FulRan=T
         wScrn=  0.000000 ICntrl=     600 IOpCl=  0 I1Cent=           0 NGrid=           0
         NMat0=    1 NMatS0= 119316 NMatT0=    0 NMatD0=    1 NMtDS0=    0 NMtDT0=    0
 Symmetry not used in FoFCou.

 Cycle   1  Pass 1  IDiag  1:
 E= -880.621472275086    
 DIIS: error= 1.74D-02 at cycle   1 NSaved=   1.
 NSaved= 1 IEnMin= 1 EnMin= -880.621472275086     IErMin= 1 ErrMin= 1.74D-02
 ErrMax= 1.74D-02  0.00D+00 EMaxC= 1.00D-01 BMatC= 3.97D-01 BMatP= 3.97D-01
 IDIUse=3 WtCom= 8.26D-01 WtEn= 1.74D-01
 Coeff-Com:  0.100D+01
 Coeff-En:   0.100D+01
 Coeff:      0.100D+01
 Gap=     0.279 Goal=   None    Shift=    0.000
 GapD=    0.279 DampG=1.000 DampE=0.500 DampFc=0.5000 IDamp=-1.
 Damping current iteration by 5.00D-01
 RMSDP=1.68D-02 MaxDP=1.97D+00              OVMax= 2.40D-01

 Cycle   2  Pass 1  IDiag  1:
 E= -880.724762946079     Delta-E=       -0.103290670993 Rises=F Damp=T
 DIIS: error= 7.72D-03 at cycle   2 NSaved=   2.
 NSaved= 2 IEnMin= 2 EnMin= -880.724762946079     IErMin= 2 ErrMin= 7.72D-03
 ErrMax= 7.72D-03  0.00D+00 EMaxC= 1.00D-01 BMatC= 5.41D-02 BMatP= 3.97D-01
 IDIUse=3 WtCom= 9.23D-01 WtEn= 7.72D-02
 Coeff-Com:  0.117D+00 0.883D+00
 Coeff-En:   0.234D+00 0.766D+00
 Coeff:      0.126D+00 0.874D+00
 Gap=     0.297 Goal=   None    Shift=    0.000
 RMSDP=7.71D-03 MaxDP=1.74D+00 DE=-1.03D-01 OVMax= 1.40D-01

 Cycle   3  Pass 1  IDiag  1:
 E= -880.863993638316     Delta-E=       -0.139230692237 Rises=F Damp=F
 DIIS: error= 1.05D-02 at cycle   3 NSaved=   3.
 NSaved= 3 IEnMin= 3 EnMin= -880.863993638316     IErMin= 2 ErrMin= 7.72D-03
 ErrMax= 1.05D-02  0.00D+00 EMaxC= 1.00D-01 BMatC= 6.13D-02 BMatP= 5.41D-02
 IDIUse=2 WtCom= 0.00D+00 WtEn= 1.00D+00
 Coeff-En:   0.000D+00 0.000D+00 0.100D+01
 Coeff:      0.000D+00 0.000D+00 0.100D+01
 Gap=     0.244 Goal=   None    Shift=    0.000
 RMSDP=6.16D-03 MaxDP=1.06D+00 DE=-1.39D-01 OVMax= 1.87D-01

 Cycle   4  Pass 1  IDiag  1:
 E= -880.681250292336     Delta-E=        0.182743345980 Rises=F Damp=F
 DIIS: error= 2.63D-02 at cycle   4 NSaved=   4.
 NSaved= 4 IEnMin= 3 EnMin= -880.863993638316     IErMin= 2 ErrMin= 7.72D-03
 ErrMax= 2.63D-02  0.00D+00 EMaxC= 1.00D-01 BMatC= 3.08D-01 BMatP= 5.41D-02
 IDIUse=2 WtCom= 0.00D+00 WtEn= 1.00D+00
 Coeff-En:   0.000D+00 0.000D+00 0.781D+00 0.219D+00
 Coeff:      0.000D+00 0.000D+00 0.781D+00 0.219D+00
 Gap=     0.236 Goal=   None    Shift=    0.000
 RMSDP=4.10D-03 MaxDP=7.28D-01 DE= 1.83D-01 OVMax= 9.30D-02

 Cycle   5  Pass 1  IDiag  1:
 E= -880.894396330776     Delta-E=       -0.213146038440 Rises=F Damp=F
 DIIS: error= 6.07D-03 at cycle   5 NSaved=   5.
 NSaved= 5 IEnMin= 5 EnMin= -880.894396330776     IErMin= 5 ErrMin= 6.07D-03
 ErrMax= 6.07D-03  0.00D+00 EMaxC= 1.00D-01 BMatC= 2.11D-02 BMatP= 5.41D-02
 IDIUse=3 WtCom= 9.39D-01 WtEn= 6.07D-02
 Coeff-Com:  0.550D-02 0.698D-02 0.346D+00-0.190D-01 0.661D+00
 Coeff-En:   0.000D+00 0.000D+00 0.299D+00 0.000D+00 0.701D+00
 Coeff:      0.517D-02 0.656D-02 0.343D+00-0.178D-01 0.663D+00
 Gap=     0.261 Goal=   None    Shift=    0.000
 RMSDP=1.63D-03 MaxDP=3.16D-01 DE=-2.13D-01 OVMax= 2.36D-02

 Cycle   6  Pass 1  IDiag  1:
 E= -880.909699151967     Delta-E=       -0.015302821191 Rises=F Damp=F
 DIIS: error= 5.53D-04 at cycle   6 NSaved=   6.
 NSaved= 6 IEnMin= 6 EnMin= -880.909699151967     IErMin= 6 ErrMin= 5.53D-04
 ErrMax= 5.53D-04  0.00D+00 EMaxC= 1.00D-01 BMatC= 2.52D-04 BMatP= 2.11D-02
 IDIUse=3 WtCom= 9.94D-01 WtEn= 5.53D-03
 Coeff-Com: -0.339D-03 0.370D-02 0.139D+00-0.479D-01 0.422D+00 0.484D+00
 Coeff-En:   0.000D+00 0.000D+00 0.000D+00 0.000D+00 0.000D+00 0.100D+01
 Coeff:     -0.337D-03 0.368D-02 0.138D+00-0.477D-01 0.420D+00 0.487D+00
 Gap=     0.249 Goal=   None    Shift=    0.000
 RMSDP=3.05D-04 MaxDP=5.81D-02 DE=-1.53D-02 OVMax= 2.08D-03

 Cycle   7  Pass 1  IDiag  1:
 E= -880.909871005680     Delta-E=       -0.000171853713 Rises=F Damp=F
 DIIS: error= 9.11D-05 at cycle   7 NSaved=   7.
 NSaved= 7 IEnMin= 7 EnMin= -880.909871005680     IErMin= 7 ErrMin= 9.11D-05
 ErrMax= 9.11D-05  0.00D+00 EMaxC= 1.00D-01 BMatC= 1.02D-05 BMatP= 2.52D-04
 IDIUse=1 WtCom= 1.00D+00 WtEn= 0.00D+00
 Coeff-Com: -0.562D-03 0.150D-02 0.557D-01-0.264D-01 0.192D+00 0.246D+00
 Coeff-Com:  0.532D+00
 Coeff:     -0.562D-03 0.150D-02 0.557D-01-0.264D-01 0.192D+00 0.246D+00
 Coeff:      0.532D+00
 Gap=     0.249 Goal=   None    Shift=    0.000
 RMSDP=3.14D-05 MaxDP=4.63D-03 DE=-1.72D-04 OVMax= 3.82D-04

 Cycle   8  Pass 1  IDiag  1:
 E= -880.909877751798     Delta-E=       -0.000006746118 Rises=F Damp=F
 DIIS: error= 3.88D-05 at cycle   8 NSaved=   8.
 NSaved= 8 IEnMin= 8 EnMin= -880.909877751798     IErMin= 8 ErrMin= 3.88D-05
 ErrMax= 3.88D-05  0.00D+00 EMaxC= 1.00D-01 BMatC= 1.15D-06 BMatP= 1.02D-05
 IDIUse=1 WtCom= 1.00D+00 WtEn= 0.00D+00
 Coeff-Com:  0.743D-04-0.291D-03 0.708D-02-0.468D-02 0.259D-01 0.333D-01
 Coeff-Com:  0.260D+00 0.678D+00
 Coeff:      0.743D-04-0.291D-03 0.708D-02-0.468D-02 0.259D-01 0.333D-01
 Coeff:      0.260D+00 0.678D+00
 Gap=     0.249 Goal=   None    Shift=    0.000
 RMSDP=2.49D-05 MaxDP=4.73D-03 DE=-6.75D-06 OVMax= 1.68D-04

 Cycle   9  Pass 1  IDiag  1:
 E= -880.909878598947     Delta-E=       -0.000000847148 Rises=F Damp=F
 DIIS: error= 7.48D-06 at cycle   9 NSaved=   9.
 NSaved= 9 IEnMin= 9 EnMin= -880.909878598947     IErMin= 9 ErrMin= 7.48D-06
 ErrMax= 7.48D-06  0.00D+00 EMaxC= 1.00D-01 BMatC= 5.97D-08 BMatP= 1.15D-06
 IDIUse=1 WtCom= 1.00D+00 WtEn= 0.00D+00
 Coeff-Com:  0.777D-04-0.291D-03 0.108D-02-0.101D-02 0.395D-02 0.395D-02
 Coeff-Com:  0.990D-01 0.328D+00 0.565D+00
 Coeff:      0.777D-04-0.291D-03 0.108D-02-0.101D-02 0.395D-02 0.395D-02
 Coeff:      0.990D-01 0.328D+00 0.565D+00
 Gap=     0.249 Goal=   None    Shift=    0.000
 RMSDP=2.81D-06 MaxDP=2.02D-04 DE=-8.47D-07 OVMax= 3.82D-05

 Cycle  10  Pass 1  IDiag  1:
 E= -880.909878644299     Delta-E=       -0.000000045352 Rises=F Damp=F
 DIIS: error= 2.17D-06 at cycle  10 NSaved=  10.
 NSaved=10 IEnMin=10 EnMin= -880.909878644299     IErMin=10 ErrMin= 2.17D-06
 ErrMax= 2.17D-06  0.00D+00 EMaxC= 1.00D-01 BMatC= 6.04D-09 BMatP= 5.97D-08
 IDIUse=1 WtCom= 1.00D+00 WtEn= 0.00D+00
 Coeff-Com:  0.139D-04-0.590D-04-0.415D-03 0.413D-04-0.116D-02-0.223D-02
 Coeff-Com:  0.116D-01 0.630D-01 0.264D+00 0.665D+00
 Coeff:      0.139D-04-0.590D-04-0.415D-03 0.413D-04-0.116D-02-0.223D-02
 Coeff:      0.116D-01 0.630D-01 0.264D+00 0.665D+00
 Gap=     0.249 Goal=   None    Shift=    0.000
 RMSDP=9.62D-07 MaxDP=8.31D-05 DE=-4.54D-08 OVMax= 1.32D-05

 Cycle  11  Pass 1  IDiag  1:
 E= -880.909878648792     Delta-E=       -0.000000004493 Rises=F Damp=F
 DIIS: error= 7.45D-07 at cycle  11 NSaved=  11.
 NSaved=11 IEnMin=11 EnMin= -880.909878648792     IErMin=11 ErrMin= 7.45D-07
 ErrMax= 7.45D-07  0.00D+00 EMaxC= 1.00D-01 BMatC= 6.45D-10 BMatP= 6.04D-09
 IDIUse=1 WtCom= 1.00D+00 WtEn= 0.00D+00
 Coeff-Com: -0.173D-05-0.721D-06-0.359D-03 0.119D-03-0.105D-02-0.168D-02
 Coeff-Com: -0.304D-02 0.456D-02 0.858D-01 0.325D+00 0.591D+00
 Coeff:     -0.173D-05-0.721D-06-0.359D-03 0.119D-03-0.105D-02-0.168D-02
 Coeff:     -0.304D-02 0.456D-02 0.858D-01 0.325D+00 0.591D+00
 Gap=     0.249 Goal=   None    Shift=    0.000
 RMSDP=3.26D-07 MaxDP=4.70D-05 DE=-4.49D-09 OVMax= 4.52D-06

 Cycle  12  Pass 1  IDiag  1:
 E= -880.909878649319     Delta-E=       -0.000000000527 Rises=F Damp=F
 DIIS: error= 2.37D-07 at cycle  12 NSaved=  12.
 NSaved=12 IEnMin=12 EnMin= -880.909878649319     IErMin=12 ErrMin= 2.37D-07
 ErrMax= 2.37D-07  0.00D+00 EMaxC= 1.00D-01 BMatC= 6.99D-11 BMatP= 6.45D-10
 IDIUse=1 WtCom= 1.00D+00 WtEn= 0.00D+00
 Coeff-Com: -0.459D-05 0.108D-04-0.126D-03 0.439D-04-0.341D-03-0.512D-03
 Coeff-Com: -0.277D-02-0.488D-02 0.111D-01 0.784D-01 0.285D+00 0.634D+00
 Coeff:     -0.459D-05 0.108D-04-0.126D-03 0.439D-04-0.341D-03-0.512D-03
 Coeff:     -0.277D-02-0.488D-02 0.111D-01 0.784D-01 0.285D+00 0.634D+00
 Gap=     0.249 Goal=   None    Shift=    0.000
 RMSDP=1.30D-07 MaxDP=1.57D-05 DE=-5.27D-10 OVMax= 1.66D-06

 Cycle  13  Pass 1  IDiag  1:
 E= -880.909878649349     Delta-E=       -0.000000000030 Rises=F Damp=F
 DIIS: error= 5.30D-08 at cycle  13 NSaved=  13.
 NSaved=13 IEnMin=13 EnMin= -880.909878649349     IErMin=13 ErrMin= 5.30D-08
 ErrMax= 5.30D-08  0.00D+00 EMaxC= 1.00D-01 BMatC= 3.71D-12 BMatP= 6.99D-11
 IDIUse=1 WtCom= 1.00D+00 WtEn= 0.00D+00
 Coeff-Com: -0.155D-05 0.379D-05-0.740D-05 0.358D-05-0.110D-04-0.137D-04
 Coeff-Com: -0.624D-03-0.211D-02-0.420D-02-0.384D-02 0.441D-01 0.231D+00
 Coeff-Com:  0.736D+00
 Coeff:     -0.155D-05 0.379D-05-0.740D-05 0.358D-05-0.110D-04-0.137D-04
 Coeff:     -0.624D-03-0.211D-02-0.420D-02-0.384D-02 0.441D-01 0.231D+00
 Coeff:      0.736D+00
 Gap=     0.249 Goal=   None    Shift=    0.000
 RMSDP=3.65D-08 MaxDP=4.96D-06 DE=-2.96D-11 OVMax= 5.57D-07

 Cycle  14  Pass 1  IDiag  1:
 E= -880.909878649375     Delta-E=       -0.000000000026 Rises=F Damp=F
 DIIS: error= 2.26D-08 at cycle  14 NSaved=  14.
 NSaved=14 IEnMin=14 EnMin= -880.909878649375     IErMin=14 ErrMin= 2.26D-08
 ErrMax= 2.26D-08  0.00D+00 EMaxC= 1.00D-01 BMatC= 7.66D-13 BMatP= 3.71D-12
 IDIUse=1 WtCom= 1.00D+00 WtEn= 0.00D+00
 Coeff-Com: -0.335D-06 0.933D-06 0.492D-05-0.749D-06 0.150D-04 0.197D-04
 Coeff-Com: -0.802D-04-0.656D-03-0.288D-02-0.849D-02-0.209D-02 0.631D-01
 Coeff-Com:  0.381D+00 0.570D+00
 Coeff:     -0.335D-06 0.933D-06 0.492D-05-0.749D-06 0.150D-04 0.197D-04
 Coeff:     -0.802D-04-0.656D-03-0.288D-02-0.849D-02-0.209D-02 0.631D-01
 Coeff:      0.381D+00 0.570D+00
 Gap=     0.249 Goal=   None    Shift=    0.000
 RMSDP=3.46D-08 MaxDP=7.27D-06 DE=-2.64D-11 OVMax= 1.61D-07

 Cycle  15  Pass 1  IDiag  1:
 E= -880.909878649387     Delta-E=       -0.000000000012 Rises=F Damp=F
 DIIS: error= 9.13D-09 at cycle  15 NSaved=  15.
 NSaved=15 IEnMin=15 EnMin= -880.909878649387     IErMin=15 ErrMin= 9.13D-09
 ErrMax= 9.13D-09  0.00D+00 EMaxC= 1.00D-01 BMatC= 6.49D-14 BMatP= 7.66D-13
 IDIUse=1 WtCom= 1.00D+00 WtEn= 0.00D+00
 Coeff-Com: -0.202D-07 0.139D-06 0.294D-05-0.760D-06 0.802D-05 0.806D-05
 Coeff-Com:  0.180D-04-0.150D-03-0.102D-02-0.388D-02-0.498D-02 0.100D-01
 Coeff-Com:  0.117D+00 0.268D+00 0.615D+00
 Coeff:     -0.202D-07 0.139D-06 0.294D-05-0.760D-06 0.802D-05 0.806D-05
 Coeff:      0.180D-04-0.150D-03-0.102D-02-0.388D-02-0.498D-02 0.100D-01
 Coeff:      0.117D+00 0.268D+00 0.615D+00
 Gap=     0.249 Goal=   None    Shift=    0.000
 RMSDP=2.03D-08 MaxDP=4.27D-06 DE=-1.18D-11 OVMax= 4.68D-08

 Cycle  16  Pass 1  IDiag  1:
 E= -880.909878649377     Delta-E=        0.000000000010 Rises=F Damp=F
 DIIS: error= 2.78D-09 at cycle  16 NSaved=  16.
 NSaved=16 IEnMin=15 EnMin= -880.909878649387     IErMin=16 ErrMin= 2.78D-09
 ErrMax= 2.78D-09  0.00D+00 EMaxC= 1.00D-01 BMatC= 8.67D-15 BMatP= 6.49D-14
 IDIUse=1 WtCom= 1.00D+00 WtEn= 0.00D+00
 Coeff-Com:  0.441D-07-0.648D-07 0.110D-05-0.369D-06 0.275D-05 0.156D-05
 Coeff-Com:  0.236D-04 0.107D-04-0.127D-03-0.858D-03-0.213D-02-0.267D-02
 Coeff-Com:  0.104D-01 0.609D-01 0.317D+00 0.618D+00
 Coeff:      0.441D-07-0.648D-07 0.110D-05-0.369D-06 0.275D-05 0.156D-05
 Coeff:      0.236D-04 0.107D-04-0.127D-03-0.858D-03-0.213D-02-0.267D-02
 Coeff:      0.104D-01 0.609D-01 0.317D+00 0.618D+00
 Gap=     0.249 Goal=   None    Shift=    0.000
 RMSDP=6.63D-09 MaxDP=1.32D-06 DE= 1.00D-11 OVMax= 1.72D-08

 Cycle  17  Pass 1  IDiag  1:
 E= -880.909878649363     Delta-E=        0.000000000014 Rises=F Damp=F
 DIIS: error= 4.86D-10 at cycle  17 NSaved=  17.
 NSaved=17 IEnMin=15 EnMin= -880.909878649387     IErMin=17 ErrMin= 4.86D-10
 ErrMax= 4.86D-10  0.00D+00 EMaxC= 1.00D-01 BMatC= 2.85D-16 BMatP= 8.67D-15
 IDIUse=1 WtCom= 1.00D+00 WtEn= 0.00D+00
 Large coefficients: NSaved= 17 BigCof=    0.00 CofMax=   10.00 Det=-3.43D-15
 Inversion failed.  Reducing to 16 matrices.
 Large coefficients: NSaved= 16 BigCof=    0.00 CofMax=   10.00 Det=-3.93D-15
 Inversion failed.  Reducing to 15 matrices.
 Coeff-Com: -0.458D-09-0.184D-07-0.858D-07-0.596D-06-0.482D-06-0.613D-05
 Coeff-Com:  0.187D-04 0.766D-04 0.161D-03-0.280D-03-0.383D-02-0.490D-02
 Coeff-Com:  0.305D-01 0.158D+00 0.821D+00
 Coeff:     -0.458D-09-0.184D-07-0.858D-07-0.596D-06-0.482D-06-0.613D-05
 Coeff:      0.187D-04 0.766D-04 0.161D-03-0.280D-03-0.383D-02-0.490D-02
 Coeff:      0.305D-01 0.158D+00 0.821D+00
 Gap=     0.249 Goal=   None    Shift=    0.000
 RMSDP=1.96D-08 MaxDP=3.64D-06 DE= 1.36D-11 OVMax= 3.42D-09

 Cycle  18  Pass 1  IDiag  1:
 E= -880.909878649345     Delta-E=        0.000000000018 Rises=F Damp=F
 DIIS: error= 2.59D-10 at cycle  18 NSaved=  16.
 NSaved=16 IEnMin=13 EnMin= -880.909878649387     IErMin=16 ErrMin= 2.59D-10
 ErrMax= 2.59D-10  0.00D+00 EMaxC= 1.00D-01 BMatC= 7.25D-17 BMatP= 2.85D-16
 IDIUse=1 WtCom= 1.00D+00 WtEn= 0.00D+00
 Large coefficients: NSaved= 16 BigCof=    0.00 CofMax=   10.00 Det=-3.41D-16
 Inversion failed.  Reducing to 15 matrices.
 Coeff-Com: -0.227D-07-0.846D-07-0.274D-06 0.563D-06 0.264D-05 0.251D-04
 Coeff-Com:  0.848D-04 0.952D-04-0.413D-03-0.361D-02-0.686D-02-0.209D-02
 Coeff-Com:  0.436D-01 0.402D+00 0.567D+00
 Coeff:     -0.227D-07-0.846D-07-0.274D-06 0.563D-06 0.264D-05 0.251D-04
 Coeff:      0.848D-04 0.952D-04-0.413D-03-0.361D-02-0.686D-02-0.209D-02
 Coeff:      0.436D-01 0.402D+00 0.567D+00
 Gap=     0.249 Goal=   None    Shift=    0.000
 RMSDP=2.26D-08 MaxDP=4.68D-06 DE= 1.82D-11 OVMax= 1.30D-09

 Cycle  19  Pass 1  IDiag  1:
 E= -880.909878649372     Delta-E=       -0.000000000026 Rises=F Damp=F
 DIIS: error= 1.18D-10 at cycle  19 NSaved=  16.
 NSaved=16 IEnMin=12 EnMin= -880.909878649387     IErMin=16 ErrMin= 1.18D-10
 ErrMax= 1.18D-10  0.00D+00 EMaxC= 1.00D-01 BMatC= 3.84D-18 BMatP= 7.25D-17
 IDIUse=1 WtCom= 1.00D+00 WtEn= 0.00D+00
 Large coefficients: NSaved= 16 BigCof=    0.00 CofMax=   10.00 Det=-4.97D-17
 Inversion failed.  Reducing to 15 matrices.
 Coeff-Com: -0.146D-07-0.601D-07 0.306D-06 0.133D-05 0.711D-05 0.222D-04
 Coeff-Com:  0.106D-04-0.175D-03-0.117D-02-0.222D-02-0.172D-02 0.957D-02
 Coeff-Com:  0.105D+00 0.210D+00 0.681D+00
 Coeff:     -0.146D-07-0.601D-07 0.306D-06 0.133D-05 0.711D-05 0.222D-04
 Coeff:      0.106D-04-0.175D-03-0.117D-02-0.222D-02-0.172D-02 0.957D-02
 Coeff:      0.105D+00 0.210D+00 0.681D+00
 Gap=     0.249 Goal=   None    Shift=    0.000
 RMSDP=5.00D-09 MaxDP=1.10D-06 DE=-2.64D-11 OVMax= 4.00D-10

 Cycle  20  Pass 1  IDiag  1:
 E= -880.909878649387     Delta-E=       -0.000000000015 Rises=F Damp=F
 DIIS: error= 2.69D-10 at cycle  20 NSaved=  16.
 NSaved=16 IEnMin=11 EnMin= -880.909878649387     IErMin=15 ErrMin= 1.18D-10
 ErrMax= 2.69D-10  0.00D+00 EMaxC= 1.00D-01 BMatC= 5.09D-18 BMatP= 3.84D-18
 IDIUse=1 WtCom= 1.00D+00 WtEn= 0.00D+00
 Large coefficients: NSaved= 16 BigCof=    0.00 CofMax=   10.00 Det=-7.74D-18
 Inversion failed.  Reducing to 15 matrices.
 Coeff-Com: -0.178D-07-0.494D-07 0.117D-06 0.351D-05 0.155D-04 0.193D-04
 Coeff-Com: -0.770D-04-0.724D-03-0.169D-02-0.270D-02 0.384D-02 0.728D-01
 Coeff-Com:  0.148D+00 0.453D+00 0.328D+00
 Coeff:     -0.178D-07-0.494D-07 0.117D-06 0.351D-05 0.155D-04 0.193D-04
 Coeff:     -0.770D-04-0.724D-03-0.169D-02-0.270D-02 0.384D-02 0.728D-01
 Coeff:      0.148D+00 0.453D+00 0.328D+00
 Gap=     0.249 Goal=   None    Shift=    0.000
 RMSDP=1.17D-08 MaxDP=2.54D-06 DE=-1.55D-11 OVMax= 3.43D-10

 Cycle  21  Pass 1  IDiag  1:
 E= -880.909878649368     Delta-E=        0.000000000020 Rises=F Damp=F
 DIIS: error= 1.09D-10 at cycle  21 NSaved=  16.
 NSaved=16 IEnMin=10 EnMin= -880.909878649387     IErMin=16 ErrMin= 1.09D-10
 ErrMax= 1.09D-10  0.00D+00 EMaxC= 1.00D-01 BMatC= 9.55D-19 BMatP= 3.84D-18
 IDIUse=1 WtCom= 1.00D+00 WtEn= 0.00D+00
 Large coefficients: NSaved= 16 BigCof=    0.00 CofMax=   10.00 Det=-4.01D-18
 Inversion failed.  Reducing to 15 matrices.
 Coeff-Com:  0.236D-07 0.262D-06 0.215D-05 0.928D-05 0.115D-04-0.420D-04
 Coeff-Com: -0.423D-03-0.106D-02-0.213D-02 0.853D-03 0.389D-01 0.866D-01
 Coeff-Com:  0.259D+00 0.196D+00 0.423D+00
 Coeff:      0.236D-07 0.262D-06 0.215D-05 0.928D-05 0.115D-04-0.420D-04
 Coeff:     -0.423D-03-0.106D-02-0.213D-02 0.853D-03 0.389D-01 0.866D-01
 Coeff:      0.259D+00 0.196D+00 0.423D+00
 Gap=     0.249 Goal=   None    Shift=    0.000
 RMSDP=2.29D-09 MaxDP=3.74D-07 DE= 1.96D-11 OVMax= 1.24D-10

 SCF Done:  E(RPBE1PBE) =  -880.909878649     A.U. after   21 cycles
            NFock= 21  Conv=0.23D-08     -V/T= 2.0044
 KE= 8.770787663574D+02 PE=-4.936388784245D+03 EE= 1.731630727929D+03
 Leave Link  502 at Tue Oct 24 12:54:33 2017, MaxMem=  8053063680 cpu:      1042.3
 (Enter /share/apps//g09/l601.exe)
 Copying SCF densities to generalized density rwf, IOpCl= 0 IROHF=0.

 **********************************************************************

            Population analysis using the SCF density.

 **********************************************************************

 Orbital symmetries:
       Occupied  (A) (A) (A) (A) (A) (A) (A) (A) (A) (A) (A) (A)
                 (A) (A) (A) (A) (A) (A) (A) (A) (A) (A) (A) (A)
                 (A) (A) (A) (A) (A) (A) (A) (A) (A) (A) (A) (A)
                 (A) (A) (A) (A) (A) (A) (A) (A) (A) (A) (A) (A)
                 (A) (A) (A) (A) (A) (A) (A) (A) (A) (A) (A) (A)
                 (A) (A) (A) (A) (A) (A)
       Virtual   (A) (A) (A) (A) (A) (A) (A) (A) (A) (A) (A) (A)
                 (A) (A) (A) (A) (A) (A) (A) (A) (A) (A) (A) (A)
                 (A) (A) (A) (A) (A) (A) (A) (A) (A) (A) (A) (A)
                 (A) (A) (A) (A) (A) (A) (A) (A) (A) (A) (A) (A)
                 (A) (A) (A) (A) (A) (A) (A) (A) (A) (A) (A) (A)
                 (A) (A) (A) (A) (A) (A) (A) (A) (A) (A) (A) (A)
                 (A) (A) (A) (A) (A) (A) (A) (A) (A) (A) (A) (A)
                 (A) (A) (A) (A) (A) (A) (A) (A) (A) (A) (A) (A)
                 (A) (A) (A) (A) (A) (A) (A) (A) (A) (A) (A) (A)
                 (A) (A) (A) (A) (A) (A) (A) (A) (A) (A) (A) (A)
                 (A) (A) (A) (A) (A) (A) (A) (A) (A) (A) (A) (A)
                 (A) (A) (A) (A) (A) (A) (A) (A) (A) (A) (A) (A)
                 (A) (A) (A) (A) (A) (A) (A) (A) (A) (A) (A) (A)
                 (A) (A) (A) (A) (A) (A) (A) (A) (A) (A) (A) (A)
                 (A) (A) (A) (A) (A) (A) (A) (A) (A) (A) (A) (A)
                 (A) (A) (A) (A) (A) (A) (A) (A) (A) (A) (A) (A)
                 (A) (A) (A) (A) (A) (A) (A) (A) (A) (A) (A) (A)
                 (A) (A) (A) (A) (A) (A) (A) (A) (A) (A) (A) (A)
                 (A) (A) (A) (A) (A) (A) (A) (A) (A) (A) (A) (A)
                 (A) (A) (A) (A) (A) (A) (A) (A) (A) (A) (A) (A)
                 (A) (A) (A) (A) (A) (A) (A) (A) (A) (A) (A) (A)
                 (A) (A) (A) (A) (A) (A) (A) (A) (A) (A) (A) (A)
                 (A) (A) (A) (A) (A) (A) (A) (A) (A) (A) (A) (A)
                 (A) (A) (A) (A) (A) (A) (A) (A) (A) (A) (A) (A)
                 (A) (A) (A) (A) (A) (A) (A) (A) (A) (A) (A) (A)
                 (A) (A) (A) (A) (A) (A) (A) (A) (A) (A) (A) (A)
                 (A) (A) (A) (A) (A) (A) (A) (A) (A) (A) (A) (A)
                 (A) (A) (A) (A) (A) (A) (A) (A) (A) (A) (A) (A)
                 (A) (A) (A) (A) (A) (A) (A) (A) (A) (A) (A) (A)
                 (A) (A) (A) (A) (A) (A) (A) (A) (A) (A) (A) (A)
                 (A) (A) (A) (A) (A) (A) (A) (A) (A) (A) (A) (A)
                 (A) (A) (A) (A) (A) (A) (A) (A) (A) (A) (A) (A)
                 (A) (A) (A) (A) (A) (A) (A) (A) (A) (A) (A) (A)
                 (A) (A) (A) (A) (A) (A) (A) (A) (A) (A) (A) (A)
                 (A) (A) (A) (A) (A) (A) (A) (A) (A) (A) (A) (A)
                 (A) (A)
 The electronic state is 1-A.
 Alpha  occ. eigenvalues --  -19.47561 -19.42044 -19.38781 -19.36198 -19.35959
 Alpha  occ. eigenvalues --  -19.32592 -10.52435 -10.48664 -10.46199 -10.46136
 Alpha  occ. eigenvalues --  -10.44800 -10.44549 -10.44049 -10.43997 -10.39141
 Alpha  occ. eigenvalues --  -10.39077 -10.34670  -1.32873  -1.26710  -1.26093
 Alpha  occ. eigenvalues --   -1.21655  -1.20593  -1.18130  -0.99751  -0.97474
 Alpha  occ. eigenvalues --   -0.93549  -0.90269  -0.87733  -0.85606  -0.83613
 Alpha  occ. eigenvalues --   -0.82001  -0.80517  -0.75324  -0.73585  -0.73278
 Alpha  occ. eigenvalues --   -0.70240  -0.68056  -0.67315  -0.66355  -0.65382
 Alpha  occ. eigenvalues --   -0.64828  -0.63267  -0.62997  -0.61737  -0.61476
 Alpha  occ. eigenvalues --   -0.60370  -0.59466  -0.59060  -0.58615  -0.57735
 Alpha  occ. eigenvalues --   -0.56695  -0.55714  -0.55424  -0.53652  -0.53128
 Alpha  occ. eigenvalues --   -0.52853  -0.51987  -0.51285  -0.50713  -0.49258
 Alpha  occ. eigenvalues --   -0.47860  -0.46964  -0.45630  -0.42837  -0.42461
 Alpha  occ. eigenvalues --   -0.41318
 Alpha virt. eigenvalues --   -0.16422  -0.12457  -0.12261  -0.11513  -0.10163
 Alpha virt. eigenvalues --   -0.09246  -0.09101  -0.08312  -0.07497  -0.06980
 Alpha virt. eigenvalues --   -0.06572  -0.06310  -0.06008  -0.04773  -0.04235
 Alpha virt. eigenvalues --   -0.04011  -0.03417  -0.03252  -0.03121  -0.02784
 Alpha virt. eigenvalues --   -0.02262  -0.02047  -0.01556  -0.01079  -0.00548
 Alpha virt. eigenvalues --   -0.00138  -0.00055   0.00417   0.00793   0.01120
 Alpha virt. eigenvalues --    0.01640   0.02030   0.02621   0.02764   0.02819
 Alpha virt. eigenvalues --    0.03171   0.03576   0.03812   0.04293   0.04934
 Alpha virt. eigenvalues --    0.05339   0.05410   0.05721   0.06372   0.06686
 Alpha virt. eigenvalues --    0.07378   0.07750   0.07983   0.08281   0.08616
 Alpha virt. eigenvalues --    0.08675   0.08873   0.09710   0.09716   0.10155
 Alpha virt. eigenvalues --    0.10638   0.11118   0.11364   0.11527   0.11961
 Alpha virt. eigenvalues --    0.12483   0.12890   0.13049   0.13445   0.13974
 Alpha virt. eigenvalues --    0.14172   0.14467   0.14701   0.15282   0.15972
 Alpha virt. eigenvalues --    0.16395   0.16485   0.17243   0.17685   0.18426
 Alpha virt. eigenvalues --    0.18780   0.19337   0.19613   0.20089   0.20692
 Alpha virt. eigenvalues --    0.21493   0.21990   0.22122   0.22371   0.23015
 Alpha virt. eigenvalues --    0.23730   0.23860   0.24148   0.24983   0.25661
 Alpha virt. eigenvalues --    0.26288   0.26950   0.27296   0.27645   0.27715
 Alpha virt. eigenvalues --    0.28172   0.29449   0.30355   0.30477   0.31452
 Alpha virt. eigenvalues --    0.32248   0.33144   0.33590   0.33927   0.34693
 Alpha virt. eigenvalues --    0.35786   0.36144   0.36841   0.37702   0.38230
 Alpha virt. eigenvalues --    0.38432   0.39235   0.40173   0.40794   0.41673
 Alpha virt. eigenvalues --    0.43444   0.43687   0.44429   0.45260   0.46595
 Alpha virt. eigenvalues --    0.47450   0.48181   0.48486   0.49280   0.49832
 Alpha virt. eigenvalues --    0.50215   0.51902   0.52112   0.52526   0.53627
 Alpha virt. eigenvalues --    0.54190   0.54551   0.54890   0.55428   0.55954
 Alpha virt. eigenvalues --    0.57075   0.57693   0.58680   0.58894   0.59355
 Alpha virt. eigenvalues --    0.60308   0.60615   0.60881   0.61559   0.61927
 Alpha virt. eigenvalues --    0.62494   0.63283   0.63703   0.64133   0.65620
 Alpha virt. eigenvalues --    0.66845   0.67825   0.68688   0.70519   0.71078
 Alpha virt. eigenvalues --    0.72278   0.75398   0.77094   0.79317   0.80830
 Alpha virt. eigenvalues --    0.82872   0.83097   0.85965   0.86941   0.88452
 Alpha virt. eigenvalues --    0.90142   0.91365   0.91724   0.93433   0.94181
 Alpha virt. eigenvalues --    0.95010   0.95743   0.97944   0.99758   1.01529
 Alpha virt. eigenvalues --    1.02295   1.03210   1.03523   1.06790   1.07659
 Alpha virt. eigenvalues --    1.10148   1.10838   1.10972   1.13334   1.14041
 Alpha virt. eigenvalues --    1.14775   1.16323   1.17158   1.17771   1.18587
 Alpha virt. eigenvalues --    1.20334   1.21527   1.23453   1.23926   1.25073
 Alpha virt. eigenvalues --    1.25746   1.27310   1.28586   1.29509   1.30850
 Alpha virt. eigenvalues --    1.31862   1.32029   1.32642   1.34324   1.35160
 Alpha virt. eigenvalues --    1.36050   1.36380   1.38033   1.39353   1.39559
 Alpha virt. eigenvalues --    1.41185   1.42374   1.42642   1.43733   1.43807
 Alpha virt. eigenvalues --    1.44510   1.45908   1.46567   1.47390   1.47996
 Alpha virt. eigenvalues --    1.48399   1.49120   1.49407   1.50453   1.51509
 Alpha virt. eigenvalues --    1.51809   1.52559   1.53250   1.54060   1.55634
 Alpha virt. eigenvalues --    1.56951   1.57051   1.57329   1.58246   1.59939
 Alpha virt. eigenvalues --    1.60555   1.61915   1.62621   1.63607   1.64201
 Alpha virt. eigenvalues --    1.64826   1.65831   1.67462   1.68817   1.69198
 Alpha virt. eigenvalues --    1.69351   1.70600   1.71065   1.72974   1.74480
 Alpha virt. eigenvalues --    1.75160   1.77430   1.77982   1.79061   1.79612
 Alpha virt. eigenvalues --    1.81582   1.82015   1.85008   1.85096   1.86332
 Alpha virt. eigenvalues --    1.88514   1.90155   1.91842   1.92750   1.93540
 Alpha virt. eigenvalues --    1.96470   1.96731   1.97518   1.99744   2.00846
 Alpha virt. eigenvalues --    2.02760   2.03659   2.05288   2.06111   2.06938
 Alpha virt. eigenvalues --    2.07287   2.09604   2.11486   2.13023   2.14920
 Alpha virt. eigenvalues --    2.15878   2.17010   2.18220   2.21166   2.24905
 Alpha virt. eigenvalues --    2.26707   2.31244   2.33220   2.33907   2.34661
 Alpha virt. eigenvalues --    2.36403   2.37026   2.38328   2.39636   2.40915
 Alpha virt. eigenvalues --    2.41071   2.41506   2.42187   2.42295   2.43219
 Alpha virt. eigenvalues --    2.44979   2.45800   2.47085   2.47548   2.48564
 Alpha virt. eigenvalues --    2.49198   2.50088   2.51429   2.51694   2.54029
 Alpha virt. eigenvalues --    2.55747   2.56800   2.58856   2.60827   2.62359
 Alpha virt. eigenvalues --    2.65013   2.65988   2.68658   2.69559   2.71700
 Alpha virt. eigenvalues --    2.73189   2.73848   2.75067   2.76759   2.77394
 Alpha virt. eigenvalues --    2.79155   2.80150   2.81535   2.82634   2.84339
 Alpha virt. eigenvalues --    2.84853   2.85693   2.86698   2.88268   2.91030
 Alpha virt. eigenvalues --    2.92205   2.93247   2.95471   2.96811   2.98356
 Alpha virt. eigenvalues --    3.01447   3.01980   3.02058   3.04220   3.04697
 Alpha virt. eigenvalues --    3.06238   3.07968   3.09146   3.10320   3.11618
 Alpha virt. eigenvalues --    3.12778   3.13682   3.15999   3.17945   3.22231
 Alpha virt. eigenvalues --    3.25513   3.29121   3.32112   3.39908   3.46448
 Alpha virt. eigenvalues --    3.55576   3.56168   3.62780   3.66513   3.68434
 Alpha virt. eigenvalues --    3.68849   3.69498   3.70023   3.70565   3.70800
 Alpha virt. eigenvalues --    3.75765   3.76274   3.81333   3.84599   3.86026
 Alpha virt. eigenvalues --    3.88720   3.92855   3.95079   3.97498   3.98089
 Alpha virt. eigenvalues --    4.02564   4.02923   4.06846   4.10089   4.13887
 Alpha virt. eigenvalues --    4.17105   4.24836   4.98915   5.00628   5.01622
 Alpha virt. eigenvalues --    5.02270   5.05465   5.07099   5.15040   5.18556
 Alpha virt. eigenvalues --    5.28173   5.28985   5.32208   5.34026   5.40881
 Alpha virt. eigenvalues --    5.50345   5.56278   5.57991   5.61534   5.78355
 Alpha virt. eigenvalues --   23.69246  23.74407  23.75748  23.81388  23.82310
 Alpha virt. eigenvalues --   23.82878  23.86396  23.88467  23.89232  23.91861
 Alpha virt. eigenvalues --   23.93962  49.88336  49.90712  49.92622  49.96020
 Alpha virt. eigenvalues --   49.99666  50.00414
          Condensed to atoms (all electrons):
               1          2          3          4          5          6
     1  C    7.983150  -2.106288   0.862794  -1.641702   0.850659  -0.418549
     2  C   -2.106288  10.958093  -2.198248   0.566525  -0.369163  -0.657669
     3  C    0.862794  -2.198248  19.547265 -15.537102   7.275876  -4.176608
     4  C   -1.641702   0.566525 -15.537102  33.200353 -18.537170   9.302859
     5  C    0.850659  -0.369163   7.275876 -18.537170  29.229941 -12.620168
     6  C   -0.418549  -0.657669  -4.176608   9.302859 -12.620168  14.981543
     7  O    0.032360   0.107013  -0.112252   0.157607  -0.357971   0.536043
     8  O    0.067725  -0.245895  -0.084275   0.111724   0.139176  -0.141643
     9  O    0.119773  -0.149419   0.520765  -0.911051   0.342723  -0.119639
    10  O   -0.149554   0.102072   0.393455  -0.567009   0.609149  -0.645934
    11  H    0.405514  -0.031196  -0.065777   0.061213  -0.001135   0.018066
    12  H    0.431943  -0.063410   0.021783  -0.000738  -0.000967  -0.010974
    13  H   -0.015802   0.413956  -0.020401  -0.013565   0.055116  -0.028063
    14  H   -0.017926  -0.120756   0.425529   0.048736   0.001916   0.016089
    15  H    0.007282  -0.007890   0.068640   0.284899   0.079656  -0.044996
    16  H    0.012155  -0.033925  -0.070671   0.115658   0.165358   0.119280
    17  H    0.021855  -0.003179   0.037466  -0.121375   0.204963   0.245727
    18  O   -0.029429   0.018594  -0.132520   0.312220  -0.018274   0.059254
    19  C   -0.188147  -0.000711   0.076092  -0.022147   0.084729  -0.254779
    20  H    0.025594  -0.004212   0.001518  -0.012412   0.001994   0.012442
    21  H   -0.018675   0.015234   0.000975  -0.001704   0.003071   0.015670
    22  H   -0.026597   0.017593  -0.023803   0.051777  -0.011947  -0.024399
    23  C   -0.018070   0.050896  -0.326320   0.594614  -0.996700   0.362453
    24  H    0.002183  -0.013673   0.073901  -0.045083  -0.017189   0.014247
    25  H   -0.000847   0.021860  -0.034532   0.028621  -0.011439  -0.003611
    26  H    0.000102  -0.001709  -0.019723   0.025189  -0.010438   0.013580
    27  C    0.014281  -0.044812  -0.500906   0.095095   0.035487   0.039740
    28  H   -0.003523   0.003147   0.059961  -0.056623  -0.017673   0.002461
    29  H    0.001431  -0.000491   0.030661  -0.045178   0.019345  -0.005341
    30  H   -0.002868   0.002776  -0.025447   0.076279  -0.008311   0.002992
    31  C    0.078962   0.048872  -0.131655  -0.556911   0.154865  -0.105155
    32  O   -0.008833  -0.093464   0.129304   0.043649  -0.003097  -0.000934
    33  C   -0.089078   0.044659   0.256161  -0.126583  -0.009072  -0.009532
    34  H    0.004468  -0.009401   0.005439   0.009955  -0.000649   0.000732
    35  H    0.000093  -0.004213  -0.025274   0.005005   0.001734  -0.000455
    36  H   -0.000480   0.005831  -0.003756  -0.002619  -0.000141   0.000050
               7          8          9         10         11         12
     1  C    0.032360   0.067725   0.119773  -0.149554   0.405514   0.431943
     2  C    0.107013  -0.245895  -0.149419   0.102072  -0.031196  -0.063410
     3  C   -0.112252  -0.084275   0.520765   0.393455  -0.065777   0.021783
     4  C    0.157607   0.111724  -0.911051  -0.567009   0.061213  -0.000738
     5  C   -0.357971   0.139176   0.342723   0.609149  -0.001135  -0.000967
     6  C    0.536043  -0.141643  -0.119639  -0.645934   0.018066  -0.010974
     7  O    7.693060   0.015528   0.003796  -0.087879   0.009031  -0.001703
     8  O    0.015528   8.210397   0.028306  -0.003172  -0.004922   0.001613
     9  O    0.003796   0.028306   8.509189  -0.002485   0.005765  -0.000918
    10  O   -0.087879  -0.003172  -0.002485   8.378966  -0.061272  -0.024379
    11  H    0.009031  -0.004922   0.005765  -0.061272   0.410149  -0.022532
    12  H   -0.001703   0.001613  -0.000918  -0.024379  -0.022532   0.407906
    13  H   -0.038439   0.000925  -0.002297   0.005328   0.001279  -0.001946
    14  H    0.005737   0.008482  -0.045957  -0.002119   0.000808   0.000037
    15  H   -0.002576  -0.059508   0.003403   0.001377  -0.000248   0.000018
    16  H    0.016132   0.007952  -0.001124  -0.006281  -0.000155   0.000007
    17  H   -0.051498   0.001460   0.000498  -0.012323  -0.000090   0.000073
    18  O    0.001582  -0.001104  -0.004686  -0.001733  -0.000182   0.000080
    19  C    0.007895   0.003058  -0.001859   0.118204   0.006297   0.006687
    20  H   -0.000569  -0.001019  -0.000002  -0.039208   0.000329  -0.000296
    21  H   -0.000773   0.000490  -0.000124  -0.038037  -0.001639   0.001633
    22  H    0.000870   0.000144  -0.000194  -0.042564   0.006524  -0.000812
    23  C    0.021251  -0.005010  -0.005819  -0.020477  -0.000058   0.000130
    24  H   -0.002656   0.000799  -0.000338   0.000526   0.000001   0.000001
    25  H    0.001139  -0.000792   0.000032  -0.000823  -0.000003  -0.000014
    26  H    0.001381   0.000086  -0.000016  -0.000014  -0.000000   0.000000
    27  C   -0.001093   0.171523   0.014595  -0.004897   0.004850  -0.000471
    28  H    0.000156  -0.037230  -0.004462  -0.000410   0.000547  -0.000004
    29  H   -0.000059  -0.057514   0.000553   0.000070  -0.000186   0.000003
    30  H    0.000038  -0.070009   0.001123  -0.001027  -0.000027   0.000002
    31  C   -0.028278  -0.010325  -0.016936   0.014787  -0.006949   0.002641
    32  O   -0.000680  -0.001771  -0.162405  -0.000335  -0.000184   0.000044
    33  C   -0.004080  -0.013378  -0.288358   0.002849  -0.000045   0.000606
    34  H    0.000017  -0.000085   0.001806   0.000027  -0.000223  -0.000007
[...]
 84388,0.00099978,-0.00050468,-0.00004555,-0.00005547,0.00002642,-0.000
 00814,-0.00001852,-0.00000180,-0.00025513,-0.00004484,-0.00008662,-0.0
 0008526,-0.00047413,0.00032553,0.00043177,0.00025834,-0.00011075,0.000
 01095,-0.00030922,-0.00019330,0.00011043,0.00000230,0.00032154,0.00111
 082,0.00234974,-0.00015569,0.00034698,0.00168494,0.00034385,-0.0001281
 5,-0.00017333,0.00036384,0.00039215,-0.00026467,0.00036413,0.07297289,
 0.13965148,0.52041908,0.00080498,0.00006850,0.00011606,-0.00108315,-0.
 00139612,0.00015994,-0.00282656,0.00245874,0.00745054,-0.00003250,-0.0
 0046200,0.00008481,-0.00058525,0.00064772,0.00044452,0.00015845,-0.000
 62230,0.00046110,-0.00078251,-0.00008650,-0.00200583,0.00022479,0.0003
 4870,-0.00031659,0.00879642,0.04420563,-0.02279810,-0.00049066,0.00045
 746,-0.00064735,0.00009333,-0.00001185,0.00001781,0.00000858,-0.000034
 82,-0.00009329,-0.00057953,0.00095263,-0.00130075,-0.00083245,-0.00039
 741,-0.00128540,0.00001135,0.00012758,0.00000350,0.00000709,-0.0000524
 9,-0.00013241,-0.00007599,0.00010306,-0.00008306,0.00074862,-0.0004924
 6,-0.00018749,0.00023483,-0.00037224,0.00007796,-0.00001047,0.00004774
 ,-0.00001571,0.00000792,0.00001324,0.00000738,0.00002815,0.00001620,0.
 00001358,-0.00044402,0.00023728,-0.00028385,0.00002723,0.00009290,0.00
 000033,-0.00008173,0.00000305,0.00003496,0.00003097,-0.00000599,-0.000
 03293,-0.00008112,-0.00028487,0.00020904,-0.00015798,-0.00031650,-0.00
 014050,-0.00000768,0.00004304,-0.00014444,-0.00009174,0.00003915,-0.00
 010410,-0.11360403,0.14340346,0.00654821,0.08683508,0.00033296,-0.0005
 1104,-0.00077733,-0.00274212,-0.00233204,0.00269974,-0.00251744,-0.011
 50442,-0.01697932,0.00032592,0.00191270,0.00079397,0.00052616,-0.00191
 650,-0.00062645,-0.00027061,-0.00068243,0.00025183,0.00142195,0.002826
 23,0.00021714,-0.00023671,0.00060018,0.00151785,0.04820369,-0.06544812
 ,0.06083378,-0.00033673,0.00087849,-0.00022837,-0.00098527,0.00010028,
 -0.00017461,0.00028953,0.00000313,0.00015662,0.00263758,0.00076974,0.0
 0071428,-0.00061481,0.00087808,0.00402740,0.00000846,0.00011226,-0.000
 29689,0.00019598,0.00028399,0.00029835,0.00003420,0.00011225,-0.000070
 77,-0.00079171,0.00122066,0.00035172,-0.00011382,-0.00023602,-0.000093
 68,-0.00005917,0.00007069,-0.00001172,-0.00002135,0.00002927,-0.000030
 87,-0.00019037,-0.00000425,-0.00009499,0.00024841,-0.00075368,0.000392
 28,0.00006661,0.00000429,-0.00000574,0.00010168,0.00003981,0.00001448,
 0.00000975,0.00004334,0.00008206,-0.00035219,0.00028016,-0.00106749,0.
 00046224,0.00074363,0.00010927,0.00007069,-0.00000624,0.00037224,0.000
 15649,-0.00000556,0.00014572,0.13249904,-0.73714059,-0.08143431,-0.188
 87622,0.84998789,0.00036301,-0.00013391,-0.00023129,0.00068627,0.00032
 127,0.00054185,0.00229509,0.00500042,0.00155169,-0.00099103,0.00012019
 ,0.00298291,-0.00000120,0.00008839,0.00051779,0.00070305,-0.00051265,0
 .00031229,-0.00076908,0.00005608,-0.00075845,-0.00056215,0.00290406,-0
 .00104017,-0.02079617,0.05074451,0.00335834,-0.00079581,0.00052977,-0.
 00027285,0.00026741,-0.00000788,-0.00008472,-0.00018761,-0.00002478,-0
 .00017431,-0.00015735,0.00044450,-0.00114823,-0.00199914,0.00134659,-0
 .00075802,-0.00002251,-0.00002053,-0.00002771,-0.00002749,0.00001661,-
 0.00004976,-0.00007793,0.00003518,-0.00003258,0.00005398,-0.00010147,-
 0.00032761,0.00026372,-0.00040249,0.00013883,0.00000971,0.00004089,-0.
 00000973,-0.00000893,0.00000590,-0.00000555,0.00008874,0.00001754,0.00
 000924,0.00015616,-0.00000586,0.00006037,-0.00019703,-0.00014393,0.000
 07894,0.00005494,0.00016141,0.00012531,-0.00004967,0.00001482,-0.00011
 707,-0.00076298,-0.00105961,-0.00058710,0.00000779,-0.00032442,-0.0000
 0274,0.00008988,0.00009690,-0.00001618,-0.00003995,0.00013487,-0.00002
 977,0.00181094,-0.06308459,-0.11764976,0.01767721,0.04396267,0.1083099
 5,-0.00006073,-0.00011669,0.00002276,0.00032600,0.00041968,0.00041911,
 0.00248408,0.00314768,-0.00189574,0.00011450,-0.00137709,-0.00072218,-
 0.00006669,0.00053572,0.00001885,0.00023442,0.00006164,-0.00005646,-0.
 00003335,-0.00011783,0.00013580,-0.00010233,0.00026284,0.00022735,0.00
 293047,-0.00562765,-0.02218434,-0.00008321,0.00003516,0.00007875,0.000
 05296,-0.00001798,-0.00002660,-0.00005387,0.00002215,-0.00000934,-0.00
 034165,-0.00012759,-0.00001020,-0.00027329,0.00016631,-0.00045707,-0.0
 0001470,0.00000224,0.00002077,-0.00007762,-0.00007660,-0.00011594,-0.0
 0001847,-0.00003211,0.00002359,0.00003481,-0.00013522,-0.00007647,0.00
 003276,-0.00004204,0.00002956,0.00000959,0.00000284,0.00000379,-0.0000
 0619,-0.00000678,-0.00000154,0.00002638,-0.00000249,-0.00000884,0.0000
 2934,0.00007107,0.00000093,-0.00002502,-0.00003283,0.00000266,0.000011
 47,0.00001586,0.00001872,-0.00001153,-0.00000436,-0.00002215,-0.000111
 90,-0.00017783,-0.00002604,0.00014968,-0.00006125,0.00000419,0.0000183
 1,0.00001309,0.00002834,-0.00003312,0.00004487,-0.00004418,-0.09351659
 ,-0.01448932,-0.01362837,0.02576432,0.01139945,0.00202748,0.54748975,0
 .00007601,-0.00003783,0.00007830,-0.00054003,-0.00014487,0.00079738,0.
 00385619,-0.00057959,0.00376937,0.00029054,0.00064425,0.00086449,-0.00
 000843,-0.00042415,0.00010916,-0.00005905,-0.00009078,0.00009283,0.000
 27412,0.00044247,-0.00007629,-0.00001067,0.00032779,-0.00010132,0.0039
 2021,0.01251703,0.01274506,-0.00013169,0.00013219,-0.00019737,0.000013
 82,-0.00003257,0.00004641,0.00001733,0.00000432,-0.00000070,0.00047516
 ,0.00015956,0.00016610,-0.00020397,-0.00025982,0.00011963,-0.00000295,
 0.00000216,0.00000418,0.00004620,0.00005208,0.00006671,-0.00000024,0.0
 0001966,-0.00001235,-0.00007501,0.00016060,0.00000168,0.00005533,-0.00
 011033,0.00001448,-0.00000727,0.00001298,-0.00000643,0.00000504,0.0000
 0522,0.00000255,-0.00001187,0.00000315,0.00000470,0.00008747,-0.000101
 25,0.00006157,-0.00002633,-0.00002978,0.00000269,0.00002127,0.00003338
 ,0.00002074,-0.00000900,0.00000781,-0.00001037,-0.00010326,-0.00012138
 ,-0.00009914,0.00002245,-0.00006782,-0.00002298,0.00002045,0.00001000,
 0.00001588,-0.00001979,0.00000565,-0.00001647,-0.01513111,-0.12316287,
 -0.06426210,0.00114050,-0.03856017,-0.03322455,-0.03151836,0.55714071,
 0.00007154,-0.00000192,0.00000456,0.00043716,0.00015117,-0.00079995,-0
 .00260665,0.00323325,0.00187994,-0.00022185,-0.00090730,-0.00065142,-0
 .00003937,0.00054790,0.00009890,0.00030914,-0.00020559,0.00014431,-0.0
 0059569,-0.00042070,-0.00044222,-0.00000460,0.00030301,0.00000500,-0.0
 1570200,-0.01550192,-0.03940190,-0.00021404,0.00012689,-0.00002851,0.0
 0012316,0.00001236,-0.00001024,-0.00006097,-0.00000643,-0.00004699,0.0
 0005040,-0.00000416,-0.00000079,0.00015412,-0.00017013,-0.00001958,-0.
 00000357,0.00003788,0.00000133,-0.00005497,-0.00005527,-0.00009605,-0.
 00001840,0.00000583,-0.00001078,0.00012916,-0.00018544,-0.00015400,0.0
 0009289,-0.00011780,0.00005870,0.00001005,0.00000781,-0.00000052,-0.00
 000138,0.00000226,0.00000045,0.00002713,0.00000217,0.00000619,-0.00004
 685,0.00007278,-0.00004735,-0.00003094,-0.00002156,0.00001834,-0.00000
 267,0.00002735,0.00001961,-0.00000265,-0.00000263,-0.00002724,-0.00005
 183,-0.00026207,0.00001662,-0.00004267,-0.00007546,0.00002376,0.000002
 59,0.00001541,-0.00005760,-0.00001491,0.00002473,-0.00000599,-0.016053
 68,-0.06470357,-0.17295152,-0.00430710,-0.00965824,0.00742455,0.008565
 60,-0.05127309,0.55203099,-0.00000530,-0.00002298,-0.00005693,0.000035
 33,0.00005477,-0.00003150,0.00029812,-0.00000099,0.00044198,-0.0000578
 0,0.00009280,0.00005431,0.00000558,0.00000701,0.00002587,0.00003374,0.
 00000415,-0.00001457,-0.00002929,-0.00002747,0.00001849,-0.00007399,-0
 .00016540,-0.00009974,-0.00021744,-0.00052511,-0.00050284,-0.00001439,
 0.00000753,0.00005201,0.00003256,0.00002600,-0.00002454,-0.00001182,-0
 .00000950,-0.00000840,0.00003221,-0.00001768,0.00002076,-0.00000638,-0
 .00010014,-0.00007688,-0.00000172,0.00000390,0.00000166,0.00000370,0.0
 0000253,0.00000510,-0.00000566,-0.00000227,0.00000252,0.00001194,-0.00
 002606,-0.00000791,-0.00000718,0.00001928,-0.00000403,0.00000040,-0.00
 000132,0.00000137,-0.00000313,-0.00000362,-0.00000303,0.00001258,0.000
 00212,0.00000127,-0.00001036,0.00000808,-0.00001152,-0.00000380,0.0000
 0015,0.,0.00000090,0.00000162,0.00000374,-0.00000048,0.00000017,-0.000
 00265,0.00016539,0.00008792,0.00015267,-0.00006349,0.00000434,0.000040
 89,-0.00003081,0.00000309,-0.00004668,0.00000081,-0.00000009,-0.000005
 71,0.00638779,-0.00329969,-0.00213934,-0.00102657,-0.00296446,-0.00072
 649,-0.22759499,0.12703277,0.04273845,0.24550739,-0.00000094,-0.000008
 97,-0.00014978,0.00000592,-0.00007797,-0.00012458,-0.00064614,-0.00021
 400,-0.00005492,-0.00007730,0.00021055,0.00006923,0.00003185,-0.000049
 00,-0.00001087,0.00002358,0.00000790,-0.00003926,-0.00001561,0.0000083
 3,0.00005640,-0.00005844,-0.00021346,-0.00009782,-0.00051582,0.0007708
 7,0.00178665,-0.00000188,-0.00000325,0.00010673,-0.00002061,0.00005724
 ,-0.00005194,-0.00001906,-0.00001619,-0.00001854,0.00011542,-0.0000076
 1,-0.00000780,0.00003672,-0.00000195,0.00026468,0.00000014,-0.00000074
 ,0.00000246,0.00000914,0.00000817,0.00001666,-0.00000487,-0.00000231,0
 .00000208,-0.00002507,0.00000064,0.00000478,-0.00002906,0.00005282,-0.
 00001501,0.00000107,-0.00000500,0.00000197,-0.00000344,-0.00000147,-0.
 00000396,0.00000910,0.00000186,0.00000191,-0.00000418,-0.00000457,0.00
 000542,0.00000234,0.00000422,0.00000037,0.00000132,-0.00000512,-0.0000
 0206,0.00000253,0.00000039,0.00000485,0.00013420,0.00013705,0.00010162
 ,-0.00005883,0.00004575,0.00002446,-0.00002105,-0.00001056,-0.00003306
 ,0.00001791,-0.00001432,0.00002017,0.01834531,-0.01411425,-0.00163756,
 -0.00299226,-0.00238478,-0.00403099,0.12696570,-0.12389922,-0.02970285
 ,-0.13558801,0.13556631,0.00000479,-0.00008868,-0.00007437,-0.00003135
 ,-0.00008580,-0.00001766,-0.00030406,-0.00001936,0.00040745,0.00011618
 ,-0.00003760,0.00008442,0.00001565,-0.00006325,-0.00002590,0.00004184,
 -0.00008403,0.00002735,-0.00003316,0.00007220,-0.00005923,-0.00001015,
 0.00023605,0.00012646,-0.00237573,0.00070170,-0.00066508,-0.00002829,0
 .00007343,0.00004368,-0.00005067,-0.00000590,-0.00005242,-0.00000321,0
 .00001414,0.00000899,0.00014295,0.00004286,0.00003529,0.00003257,-0.00
 000389,0.00017732,-0.00000878,0.00000542,-0.00000303,0.00000418,0.0000
 0768,-0.00000035,-0.00000206,0.00001040,-0.00000659,-0.00004785,0.0000
 6762,0.00002841,-0.00001560,-0.00001778,0.00000031,-0.00000245,0.00000
 555,0.00000038,-0.00000511,0.00000190,-0.00000466,-0.00001331,-0.00000
 217,-0.00001207,0.00002674,-0.00003814,0.00002008,-0.00000101,-0.00000
 246,0.00000005,0.00000350,0.00000566,0.00000007,-0.00000286,0.00000265
 ,0.00000032,-0.00018754,-0.00010171,-0.00016021,0.00013755,0.00001053,
 -0.00004748,0.00003295,0.00000962,0.00008692,-0.00000627,0.00002750,-0
 .00001865,0.02697294,-0.01085956,-0.00238170,-0.00354404,-0.00397924,-
 0.00230765,0.04109465,-0.02881516,-0.05902431,-0.04594430,0.03414812,0
 .05803383,-0.00001395,-0.00001198,0.00003910,-0.00003183,0.00004102,0.
 00011626,0.00022226,0.00007153,-0.00049817,0.00008097,-0.00020006,-0.0
 0006673,0.00000403,-0.00000734,-0.00004913,-0.00001808,-0.00001587,0.0
 0001554,0.00005350,0.00006526,0.00001215,0.00008994,0.00028225,0.00016
 940,0.00066740,0.00030553,-0.00055250,0.00000754,0.00001164,-0.0000297
 0,-0.00001811,-0.00002686,0.00002064,0.00001116,0.00000953,0.00001081,
 -0.00001068,0.00001203,0.00000759,-0.00002090,0.00002588,-0.00002913,0
 .00000658,-0.00000225,-0.00001344,-0.00000647,-0.00000181,-0.00000973,
 0.00000598,0.00000344,-0.00000258,-0.00003427,0.00005006,0.00002598,0.
 00000021,-0.00002058,0.00000092,-0.00000164,0.00000395,-0.00000091,0.0
 0000088,0.00000306,0.00000013,-0.00001740,-0.00000329,-0.00000652,0.00
 002486,-0.00002333,0.00001435,0.00000532,-0.00000330,-0.00000417,-0.00
 000020,0.00000084,-0.00000530,-0.00000038,0.00000238,0.00000311,-0.000
 22987,-0.00014533,-0.00025020,0.00000503,0.00005168,-0.00010231,0.0000
 4068,0.00000141,0.00007056,0.00001401,0.00000568,0.00002402,-0.0041467
 0,-0.00285340,0.00132403,-0.00066726,0.00158897,0.00038511,-0.19276872
 ,-0.13044688,0.04557612,-0.01846746,-0.01723700,0.00517154,0.20796209,
 -0.00000678,-0.00000346,-0.00001868,-0.00000360,0.00001331,0.00017367,
 0.00034590,-0.00002426,-0.00074237,-0.00007846,0.00001886,-0.00000186,
 -0.00000222,0.00000801,-0.00000368,-0.00002475,0.00004235,-0.00001829,
 0.00008392,0.00005875,0.00007970,-0.00004180,-0.00016405,-0.00007613,0
 .00143408,0.00072620,0.00087197,0.00002469,-0.00001871,0.00001429,-0.0
 0001066,0.00001286,-0.00001182,0.00000126,-0.00000419,-0.00000087,0.00
 000425,-0.00000770,0.00000618,-0.00007348,-0.00001036,0.00004283,0.000
 00593,0.00001281,-0.00001613,0.00000307,-0.00000100,0.00000438,-0.0000
 0047,-0.00000420,0.00000332,0.00002902,-0.00002358,-0.00000008,-0.0000
 1179,0.00002618,-0.00000929,-0.00000049,-0.00000239,0.00000064,-0.0000
 0011,-0.00000187,0.00000038,0.00000492,0.00000104,0.00000167,-0.000031
 84,0.00000471,-0.00001804,0.00000326,0.00000496,0.00000063,0.00000278,
 -0.00000084,0.00000470,0.00000203,0.00000060,0.00000023,0.00010657,0.0
 0009132,0.00010743,-0.00003094,0.00006530,0.00001104,-0.00001670,0.000
 00126,-0.00002175,0.00001069,-0.00000623,0.00000507,-0.01567311,-0.016
 89805,0.00620113,0.00230021,-0.00006722,-0.00412246,-0.13197674,-0.149
 38875,0.04019043,0.01421710,0.01221607,-0.00367034,0.14162979,0.162929
 27,0.00001673,-0.00003501,0.00000754,0.00003324,0.00008279,0.00017339,
 0.00079948,0.00048166,-0.00023812,0.00003974,-0.00033494,-0.00002665,-
 0.00002249,0.00006636,-0.00003510,0.00003590,-0.00003519,0.00004235,0.
 00001498,0.00005663,-0.00003008,0.00007549,0.00024777,0.00010126,0.001
 07041,0.00085148,-0.00193942,-0.00003348,0.00003262,-0.00001218,0.0000
 0578,-0.00001060,0.00000265,-0.00001274,0.00000456,-0.00000821,0.00004
 596,0.00002187,0.00001240,-0.00005931,-0.00003997,-0.00004117,0.000004
 87,0.00001795,-0.00004242,-0.00001305,-0.00001167,-0.00002814,-0.00000
 039,0.00000615,-0.00000421,0.00001056,0.00001740,0.00000660,0.00000711
 ,-0.00002568,0.00000455,-0.00000116,0.00000467,-0.00000076,-0.00000043
 ,0.00000349,-0.00000163,-0.00000863,-0.00000087,-0.00000493,-0.0000047
 9,-0.00001959,-0.00000436,-0.00000100,-0.00000961,0.00000285,0.0000086
 4,0.00001126,0.00000858,-0.00000116,0.00000291,-0.00000349,-0.00015644
 ,-0.00016700,-0.00020297,-0.00006127,0.00003839,0.00000600,0.00001748,
 0.00001050,0.00001371,0.00003841,0.00001069,0.00004188,-0.02414093,-0.
 01641501,0.00975852,0.00355538,-0.00162322,-0.00327790,0.04404393,0.03
 838399,-0.05888539,0.00431132,0.00474396,-0.00221250,-0.04994664,-0.04
 061263,0.06087428,-0.00001357,0.00003338,-0.00001692,0.00004732,0.0000
 7437,0.00001784,0.00054077,0.00035881,-0.00033307,-0.00004082,-0.00017
 887,-0.00012343,0.00000505,0.00007793,-0.00001714,0.00002188,0.0000224
 4,-0.00002542,-0.00000633,-0.00000599,0.00004889,0.00002034,0.00003540
 ,0.00002178,0.00100064,-0.00100901,-0.00171597,-0.00000561,-0.00001737
 ,0.00002467,0.00001993,0.00001001,0.00001540,-0.00001172,-0.00000438,-
 0.00001234,-0.00001626,-0.00000851,-0.00002517,0.00000101,-0.00007702,
 -0.00008190,0.00000482,-0.00000501,-0.00001014,-0.00001296,-0.00001023
 ,-0.00001491,-0.00000056,-0.00000499,0.00000261,-0.00000691,-0.0000154
 6,-0.00000599,0.00000165,0.00000954,-0.00000066,0.00000193,-0.00000134
 ,0.00000046,0.00000033,0.00000027,-0.00000034,0.00000234,-0.00000042,0
 .00000204,0.00000869,0.00000662,-0.00000008,-0.00000032,-0.00000621,-0
 .00000218,0.00000203,0.00000097,-0.00000011,0.00000002,0.00000003,-0.0
 0000037,-0.00001090,-0.00002216,-0.00003139,-0.00006961,0.00000939,0.0
 0000937,-0.00000168,-0.00000215,-0.00001633,0.00001496,-0.00000571,0.0
 0002330,-0.00467827,0.00292623,-0.00427058,-0.00032092,0.00049321,0.00
 123205,-0.06451489,0.04095104,-0.05821072,-0.00489637,0.01161734,-0.02
 118021,0.00725149,-0.01222556,0.02032848,0.06566249,0.00000071,-0.0000
 2872,-0.00001242,0.00015196,0.00011213,-0.00010494,-0.00064430,0.00064
 693,-0.00077675,-0.00002485,-0.00043162,-0.00024902,-0.00001139,0.0001
 6325,-0.00002752,0.00007726,-0.00003786,0.00002050,-0.00011299,-0.0000
 9357,-0.00007342,0.00003226,0.00022571,0.00012376,-0.00138138,-0.00223
 769,-0.00504584,-0.00003250,0.00002657,0.00001866,0.00000650,-0.000012
 00,-0.00001113,-0.00001748,0.00000838,-0.00000497,-0.00002046,-0.00000
 773,-0.00001301,0.00001482,0.00005745,0.00000978,-0.00000042,0.0000057
 0,-0.00000941,-0.00002436,-0.00002030,-0.00004255,-0.00000401,0.000001
 58,-0.00000147,0.00001423,-0.00002748,-0.00001659,0.00000894,-0.000021
 79,0.00001094,0.00000161,0.00000358,0.00000035,-0.00000204,0.00000173,
 -0.00000131,-0.00000304,-0.00000174,-0.00000624,-0.00000350,0.00001223
 ,-0.00000482,-0.00000519,-0.00000633,0.00000411,0.00000085,0.00000594,
 0.00000536,-0.00000139,0.00000039,-0.00000505,-0.00016160,-0.00012778,
 -0.00015025,0.00003054,0.00000317,-0.00004290,0.00002492,0.00000784,0.
 00003599,0.00000313,0.00001841,0.00000333,-0.00537480,0.01263360,-0.01
 761802,-0.00030274,0.00065602,0.00115754,0.04277446,-0.13466983,0.1285
 1493,0.00117945,-0.00805341,0.01243206,0.00683335,-0.00960701,0.014243
 90,-0.04302658,0.14079424,0.00000119,-0.00001755,-0.00000358,0.0001941
 5,0.00008885,-0.00024966,-0.00073273,0.00079150,0.00022343,-0.00003044
 ,-0.00038355,-0.00022332,-0.00001830,0.00019294,0.00002705,0.00009374,
 -0.00004803,0.00002452,-0.00018144,-0.00015012,-0.00010972,0.00000145,
 0.00012740,0.00005705,-0.00123482,-0.00363599,-0.00495019,-0.00003901,
 0.00002348,0.00002373,0.00002488,-0.00000562,-0.00001368,-0.00002332,0
 .00000374,-0.00001141,-0.00005349,-0.00001442,-0.00002678,0.00001313,0
 .00002109,-0.00008587,-0.00000310,0.00000896,0.00000474,-0.00002195,-0
 .00002345,-0.00003982,-0.00000705,0.00000123,-0.00000198,0.00004231,-0
 .00006306,-0.00003529,0.00001551,-0.00002113,0.00001529,0.00000307,0.0
 0000156,0.00000070,-0.00000196,0.00000046,-0.00000098,0.00000527,-0.00
 000049,-0.00000204,-0.00001705,0.00003017,-0.00001671,-0.00000718,-0.0
 0000405,0.00000608,-0.00000236,0.00000550,0.00000487,-0.00000133,-0.00
 000121,-0.00000782,-0.00006619,-0.00008221,-0.00002645,0.00002695,-0.0
 0003254,-0.00001897,0.00000899,0.00000654,0.00000705,-0.00000958,0.000
 01580,-0.00001190,-0.00584154,0.01832225,-0.01971020,0.00056060,0.0002
 1186,0.00349709,-0.05748137,0.12075043,-0.22907088,0.00183467,-0.00538
 152,0.00799256,-0.00142021,0.00162473,-0.00405690,0.06436848,-0.132363
 56,0.24678999\\-0.00000741,-0.00000821,-0.00000394,0.00000661,-0.00001
 318,0.00000219,-0.00000267,-0.00000937,0.00000891,-0.00001276,0.000005
 40,-0.00000345,-0.00000798,0.00002231,0.00001831,0.00000512,0.00000191
 ,-0.00002467,0.00000632,0.00000037,0.00001616,0.00000247,-0.00000322,-
 0.00000883,0.00000944,-0.00000048,-0.00000162,-0.00000259,0.00000771,0
 .00002240,0.00000603,-0.00000293,0.00000569,0.00000353,0.00000024,0.00
 000803,0.00000536,0.00000043,-0.00000005,0.00000199,0.00000916,0.00000
 024,-0.00000473,0.00000569,0.00000002,-0.00000457,-0.00000081,0.000005
 62,-0.00000408,-0.00000401,0.00000718,-0.00000948,-0.00003802,-0.00001
 512,0.00000450,-0.00001684,-0.00000770,-0.00001001,-0.00001058,0.00001
 100,-0.00000063,0.00000074,0.00001365,-0.00000987,-0.00000365,0.000009
 45,-0.00000164,0.00001713,-0.00001071,-0.00000054,-0.00000160,-0.00000
 727,-0.00000119,-0.00000180,-0.00000401,-0.00000264,0.00000127,-0.0000
 0201,-0.00000538,0.00000382,0.00000323,-0.00000157,0.00000299,-0.00000
 696,-0.00000625,0.00000022,-0.00000457,-0.00000439,-0.00000156,-0.0000
 0245,0.00000545,0.00001202,-0.00000103,0.00000715,0.00000550,-0.000008
 01,0.00001143,0.00000534,-0.00000798,0.00000783,0.00000332,-0.00000175
 ,0.00000610,0.00000515,-0.00000491,0.00001104,0.00000553,-0.00000504\\
 \@


 AN AIRPLANE IS A COLLECTION OF SPARE PARTS
 FLYING IN CLOSE FORMATION.
 Job cpu time:       0 days  2 hours 40 minutes 35.4 seconds.
 File lengths (MBytes):  RWF=    766 Int=      0 D2E=      0 Chk=     19 Scr=      1
 Normal termination of Gaussian 09 at Tue Oct 24 14:36:47 2017.
