 Entering Gaussian System, Link 0=g09
 Initial command:
 /share/apps//g09/l1.exe "/scratch/Gau-4854.inp" -scrdir="/scratch/"
 Entering Link 1 = /share/apps//g09/l1.exe PID=      4855.
  
 Copyright (c) 1988,1990,1992,1993,1995,1998,2003,2009,2013,
            Gaussian, Inc.  All Rights Reserved.
  
 This is part of the Gaussian(R) 09 program.  It is based on
 the Gaussian(R) 03 system (copyright 2003, Gaussian, Inc.),
 the Gaussian(R) 98 system (copyright 1998, Gaussian, Inc.),
 the Gaussian(R) 94 system (copyright 1995, Gaussian, Inc.),
 the Gaussian 92(TM) system (copyright 1992, Gaussian, Inc.),
 the Gaussian 90(TM) system (copyright 1990, Gaussian, Inc.),
 the Gaussian 88(TM) system (copyright 1988, Gaussian, Inc.),
 the Gaussian 86(TM) system (copyright 1986, Carnegie Mellon
 University), and the Gaussian 82(TM) system (copyright 1983,
 Carnegie Mellon University). Gaussian is a federally registered
 trademark of Gaussian, Inc.
  
 This software contains proprietary and confidential information,
 including trade secrets, belonging to Gaussian, Inc.
  
 This software is provided under written license and may be
 used, copied, transmitted, or stored only in accord with that
 written license.
  
 The following legend is applicable only to US Government
 contracts under FAR:
  
                    RESTRICTED RIGHTS LEGEND
  
 Use, reproduction and disclosure by the US Government is
 subject to restrictions as set forth in subparagraphs (a)
 and (c) of the Commercial Computer Software - Restricted
 Rights clause in FAR 52.227-19.
  
 Gaussian, Inc.
 340 Quinnipiac St., Bldg. 40, Wallingford CT 06492
  
  
 ---------------------------------------------------------------
 Warning -- This program may not be used in any manner that
 competes with the business of Gaussian, Inc. or will provide
 assistance to any competitor of Gaussian, Inc.  The licensee
 of this program is prohibited from giving any competitor of
 Gaussian, Inc. access to this program.  By using this program,
 the user acknowledges that Gaussian, Inc. is engaged in the
 business of creating and licensing software in the field of
 computational chemistry and represents and warrants to the
 licensee that it is not a competitor of Gaussian, Inc. and that
 it will not use this program in any manner prohibited above.
 ---------------------------------------------------------------
  

 Cite this work as:
 Gaussian 09, Revision D.01,
 M. J. Frisch, G. W. Trucks, H. B. Schlegel, G. E. Scuseria, 
 M. A. Robb, J. R. Cheeseman, G. Scalmani, V. Barone, B. Mennucci, 
 G. A. Petersson, H. Nakatsuji, M. Caricato, X. Li, H. P. Hratchian, 
 A. F. Izmaylov, J. Bloino, G. Zheng, J. L. Sonnenberg, M. Hada, 
 M. Ehara, K. Toyota, R. Fukuda, J. Hasegawa, M. Ishida, T. Nakajima, 
 Y. Honda, O. Kitao, H. Nakai, T. Vreven, J. A. Montgomery, Jr., 
 J. E. Peralta, F. Ogliaro, M. Bearpark, J. J. Heyd, E. Brothers, 
 K. N. Kudin, V. N. Staroverov, T. Keith, R. Kobayashi, J. Normand, 
 K. Raghavachari, A. Rendell, J. C. Burant, S. S. Iyengar, J. Tomasi, 
 M. Cossi, N. Rega, J. M. Millam, M. Klene, J. E. Knox, J. B. Cross, 
 V. Bakken, C. Adamo, J. Jaramillo, R. Gomperts, R. E. Stratmann, 
 O. Yazyev, A. J. Austin, R. Cammi, C. Pomelli, J. W. Ochterski, 
 R. L. Martin, K. Morokuma, V. G. Zakrzewski, G. A. Voth, 
 P. Salvador, J. J. Dannenberg, S. Dapprich, A. D. Daniels, 
 O. Farkas, J. B. Foresman, J. V. Ortiz, J. Cioslowski, 
 and D. J. Fox, Gaussian, Inc., Wallingford CT, 2013.
 
 ******************************************
 Gaussian 09:  EM64L-G09RevD.01 24-Apr-2013
                 9-Jan-2017 
 ******************************************
 %nproc=20
 Will use up to   20 processors via shared memory.
 %mem=100GB
 %chk=Ac-4_cGalMe.chk
 -------------------------------------------------------------------
 #P PBE1PBE/6-311+G(d,p) opt optcyc=999 freq EmpiricalDispersion=GD3
 -------------------------------------------------------------------
 1/6=999,14=-1,18=20,19=15,26=3,38=1/1,3;
 2/9=110,12=2,17=6,18=5,40=1/2;
 3/5=4,6=6,7=111,11=2,16=1,25=1,30=1,71=1,74=-13,124=31/1,2,3;
 4//1;
 5/5=2,38=5/2;
 6/7=2,8=2,9=2,10=2,28=1/1;
 7//1,2,3,16;
 1/6=999,14=-1,18=20,19=15,26=3/3(2);
 2/9=110/2;
 99//99;
 2/9=110/2;
 3/5=4,6=6,7=111,11=2,16=1,25=1,30=1,71=1,74=-13,124=31/1,2,3;
 4/5=5,16=3,69=1/1;
 5/5=2,38=5/2;
 7//1,2,3,16;
 1/6=999,14=-1,18=20,19=15,26=3/3(-5);
 2/9=110/2;
 6/7=2,8=2,9=2,10=2,19=2,28=1/1;
 99/9=1/99;
 Leave Link    1 at Mon Jan  9 18:04:01 2017, MaxMem= 13421772800 cpu:         1.8
 (Enter /share/apps//g09/l101.exe)
 -------
 disacch
 -------
 Symbolic Z-matrix:
 Charge =  1 Multiplicity = 1
 C                    -1.73322   0.49177   1.05303 
 C                    -0.77496  -0.49701   1.74199 
 C                     0.64244   0.02548   2.031 
 C                     1.31228   0.6203    0.77833 
 C                     1.04469  -0.31322  -0.43388 
 C                    -0.34512  -0.96433  -0.40096 
 O                    -0.68432  -1.56996   0.75642 
 O                     0.81446   1.91553   0.44235 
 O                     0.60059   1.02815   3.05632 
 O                    -1.52045   0.18872  -0.39298 
 H                    -1.4748    1.53951   1.23744 
 H                    -2.7873    0.27079   1.25012 
 H                    -1.2122   -0.93642   2.6459 
 H                     1.22103  -0.84357   2.38178 
 H                     2.40373   0.66137   0.93568 
 H                     1.16012   0.28177  -1.35748 
 H                    -0.57714  -1.59305  -1.26867 
 O                     1.88535  -1.45289  -0.42983 
 C                    -1.57321   1.29755  -1.36299 
 H                    -1.41594   0.83958  -2.34437 
 H                    -2.58681   1.70686  -1.30196 
 H                    -0.80396   2.0366   -1.11804 
 C                     3.06803  -1.31487  -1.23949 
 H                     2.806    -1.15787  -2.29802 
 H                     3.70283  -0.48567  -0.88725 
 H                     3.61449  -2.25748  -1.13392 
 C                     1.62934   3.01058   0.90567 
 H                     1.64528   3.05996   2.00306 
 H                     2.65665   2.91785   0.51803 
 H                     1.17394   3.92163   0.50145 
 C                     0.67615   0.53795   4.36644 
 O                     0.69825  -0.64631   4.6097 
 C                     0.74013   1.6697    5.34558 
 H                     0.08413   2.49576   5.04756 
 H                     1.77004   2.05479   5.37624 
 H                     0.47548   1.30285   6.34154 
 
 NAtoms=     36 NQM=       36 NQMF=       0 NMMI=      0 NMMIF=      0
                NMic=       0 NMicF=      0.
                    Isotopes and Nuclear Properties:
 (Nuclear quadrupole moments (NQMom) in fm**2, nuclear magnetic moments (NMagM)
  in nuclear magnetons)

  Atom         1           2           3           4           5           6           7           8           9          10
 IAtWgt=          12          12          12          12          12          12          16          16          16          16
 AtmWgt=  12.0000000  12.0000000  12.0000000  12.0000000  12.0000000  12.0000000  15.9949146  15.9949146  15.9949146  15.9949146
 NucSpn=           0           0           0           0           0           0           0           0           0           0
 AtZEff=   0.0000000   0.0000000   0.0000000   0.0000000   0.0000000   0.0000000   0.0000000   0.0000000   0.0000000   0.0000000
 NQMom=    0.0000000   0.0000000   0.0000000   0.0000000   0.0000000   0.0000000   0.0000000   0.0000000   0.0000000   0.0000000
 NMagM=    0.0000000   0.0000000   0.0000000   0.0000000   0.0000000   0.0000000   0.0000000   0.0000000   0.0000000   0.0000000
 AtZNuc=   6.0000000   6.0000000   6.0000000   6.0000000   6.0000000   6.0000000   8.0000000   8.0000000   8.0000000   8.0000000

  Atom        11          12          13          14          15          16          17          18          19          20
 IAtWgt=           1           1           1           1           1           1           1          16          12           1
 AtmWgt=   1.0078250   1.0078250   1.0078250   1.0078250   1.0078250   1.0078250   1.0078250  15.9949146  12.0000000   1.0078250
 NucSpn=           1           1           1           1           1           1           1           0           0           1
 AtZEff=   0.0000000   0.0000000   0.0000000   0.0000000   0.0000000   0.0000000   0.0000000   0.0000000   0.0000000   0.0000000
 NQMom=    0.0000000   0.0000000   0.0000000   0.0000000   0.0000000   0.0000000   0.0000000   0.0000000   0.0000000   0.0000000
 NMagM=    2.7928460   2.7928460   2.7928460   2.7928460   2.7928460   2.7928460   2.7928460   0.0000000   0.0000000   2.7928460
 AtZNuc=   1.0000000   1.0000000   1.0000000   1.0000000   1.0000000   1.0000000   1.0000000   8.0000000   6.0000000   1.0000000

  Atom        21          22          23          24          25          26          27          28          29          30
 IAtWgt=           1           1          12           1           1           1          12           1           1           1
 AtmWgt=   1.0078250   1.0078250  12.0000000   1.0078250   1.0078250   1.0078250  12.0000000   1.0078250   1.0078250   1.0078250
 NucSpn=           1           1           0           1           1           1           0           1           1           1
 AtZEff=   0.0000000   0.0000000   0.0000000   0.0000000   0.0000000   0.0000000   0.0000000   0.0000000   0.0000000   0.0000000
 NQMom=    0.0000000   0.0000000   0.0000000   0.0000000   0.0000000   0.0000000   0.0000000   0.0000000   0.0000000   0.0000000
 NMagM=    2.7928460   2.7928460   0.0000000   2.7928460   2.7928460   2.7928460   0.0000000   2.7928460   2.7928460   2.7928460
 AtZNuc=   1.0000000   1.0000000   6.0000000   1.0000000   1.0000000   1.0000000   6.0000000   1.0000000   1.0000000   1.0000000

  Atom        31          32          33          34          35          36
 IAtWgt=          12          16          12           1           1           1
 AtmWgt=  12.0000000  15.9949146  12.0000000   1.0078250   1.0078250   1.0078250
 NucSpn=           0           0           0           1           1           1
 AtZEff=   0.0000000   0.0000000   0.0000000   0.0000000   0.0000000   0.0000000
 NQMom=    0.0000000   0.0000000   0.0000000   0.0000000   0.0000000   0.0000000
 NMagM=    0.0000000   0.0000000   0.0000000   2.7928460   2.7928460   2.7928460
 AtZNuc=   6.0000000   8.0000000   6.0000000   1.0000000   1.0000000   1.0000000
 Leave Link  101 at Mon Jan  9 18:04:01 2017, MaxMem= 13421772800 cpu:         4.3
 (Enter /share/apps//g09/l103.exe)

 GradGradGradGradGradGradGradGradGradGradGradGradGradGradGradGradGradGrad
 Berny optimization.
 Initialization pass.
                           ----------------------------
                           !    Initial Parameters    !
                           ! (Angstroms and Degrees)  !
 --------------------------                            --------------------------
 ! Name  Definition              Value          Derivative Info.                !
 --------------------------------------------------------------------------------
 ! R1    R(1,2)                  1.5397         estimate D2E/DX2                !
 ! R2    R(1,10)                 1.4927         estimate D2E/DX2                !
 ! R3    R(1,11)                 1.0948         estimate D2E/DX2                !
 ! R4    R(1,12)                 1.0949         estimate D2E/DX2                !
 ! R5    R(2,3)                  1.538          estimate D2E/DX2                !
 ! R6    R(2,7)                  1.4597         estimate D2E/DX2                !
 ! R7    R(2,13)                 1.096          estimate D2E/DX2                !
 ! R8    R(3,4)                  1.54           estimate D2E/DX2                !
 ! R9    R(3,9)                  1.4347         estimate D2E/DX2                !
 ! R10   R(3,14)                 1.1014         estimate D2E/DX2                !
 ! R11   R(4,5)                  1.5532         estimate D2E/DX2                !
 ! R12   R(4,8)                  1.4277         estimate D2E/DX2                !
 ! R13   R(4,15)                 1.1035         estimate D2E/DX2                !
 ! R14   R(5,6)                  1.5351         estimate D2E/DX2                !
 ! R15   R(5,16)                 1.1047         estimate D2E/DX2                !
 ! R16   R(5,18)                 1.4162         estimate D2E/DX2                !
 ! R17   R(6,7)                  1.3496         estimate D2E/DX2                !
 ! R18   R(6,10)                 1.6465         estimate D2E/DX2                !
 ! R19   R(6,17)                 1.0964         estimate D2E/DX2                !
 ! R20   R(8,27)                 1.4415         estimate D2E/DX2                !
 ! R21   R(9,31)                 1.4009         estimate D2E/DX2                !
 ! R22   R(10,19)                1.4742         estimate D2E/DX2                !
 ! R23   R(18,23)                1.4399         estimate D2E/DX2                !
 ! R24   R(19,20)                1.0943         estimate D2E/DX2                !
 ! R25   R(19,21)                1.0948         estimate D2E/DX2                !
 ! R26   R(19,22)                1.0945         estimate D2E/DX2                !
 ! R27   R(23,24)                1.1017         estimate D2E/DX2                !
 ! R28   R(23,25)                1.1021         estimate D2E/DX2                !
 ! R29   R(23,26)                1.0947         estimate D2E/DX2                !
 ! R30   R(27,28)                1.0986         estimate D2E/DX2                !
 ! R31   R(27,29)                1.1019         estimate D2E/DX2                !
 ! R32   R(27,30)                1.0958         estimate D2E/DX2                !
 ! R33   R(31,32)                1.2092         estimate D2E/DX2                !
 ! R34   R(31,33)                1.4979         estimate D2E/DX2                !
 ! R35   R(33,34)                1.0961         estimate D2E/DX2                !
 ! R36   R(33,35)                1.1            estimate D2E/DX2                !
 ! R37   R(33,36)                1.0939         estimate D2E/DX2                !
 ! A1    A(2,1,10)             102.3794         estimate D2E/DX2                !
 ! A2    A(2,1,11)             113.0989         estimate D2E/DX2                !
 ! A3    A(2,1,12)             112.8935         estimate D2E/DX2                !
 ! A4    A(10,1,11)            108.895          estimate D2E/DX2                !
 ! A5    A(10,1,12)            105.7023         estimate D2E/DX2                !
 ! A6    A(11,1,12)            112.9599         estimate D2E/DX2                !
 ! A7    A(1,2,3)              116.0708         estimate D2E/DX2                !
 ! A8    A(1,2,7)              102.0383         estimate D2E/DX2                !
 ! A9    A(1,2,13)             112.2227         estimate D2E/DX2                !
 ! A10   A(3,2,7)              108.6236         estimate D2E/DX2                !
 ! A11   A(3,2,13)             110.4176         estimate D2E/DX2                !
 ! A12   A(7,2,13)             106.6731         estimate D2E/DX2                !
 ! A13   A(2,3,4)              112.2843         estimate D2E/DX2                !
 ! A14   A(2,3,9)              110.171          estimate D2E/DX2                !
 ! A15   A(2,3,14)             106.0169         estimate D2E/DX2                !
 ! A16   A(4,3,9)              108.9088         estimate D2E/DX2                !
 ! A17   A(4,3,14)             109.5926         estimate D2E/DX2                !
 ! A18   A(9,3,14)             109.8254         estimate D2E/DX2                !
 ! A19   A(3,4,5)              109.1322         estimate D2E/DX2                !
 ! A20   A(3,4,8)              112.9644         estimate D2E/DX2                !
 ! A21   A(3,4,15)             109.1835         estimate D2E/DX2                !
 ! A22   A(5,4,8)              107.5489         estimate D2E/DX2                !
 ! A23   A(5,4,15)             107.7012         estimate D2E/DX2                !
 ! A24   A(8,4,15)             110.1617         estimate D2E/DX2                !
 ! A25   A(4,5,6)              113.2132         estimate D2E/DX2                !
 ! A26   A(4,5,16)             108.1069         estimate D2E/DX2                !
 ! A27   A(4,5,18)             112.2823         estimate D2E/DX2                !
 ! A28   A(6,5,16)             109.9359         estimate D2E/DX2                !
 ! A29   A(6,5,18)             101.305          estimate D2E/DX2                !
 ! A30   A(16,5,18)            111.9501         estimate D2E/DX2                !
 ! A31   A(5,6,7)              115.8662         estimate D2E/DX2                !
 ! A32   A(5,6,10)             110.4469         estimate D2E/DX2                !
 ! A33   A(5,6,17)             114.6986         estimate D2E/DX2                !
 ! A34   A(7,6,10)              97.5097         estimate D2E/DX2                !
 ! A35   A(7,6,17)             111.6042         estimate D2E/DX2                !
 ! A36   A(10,6,17)            104.7357         estimate D2E/DX2                !
 ! A37   A(2,7,6)              105.3537         estimate D2E/DX2                !
 ! A38   A(4,8,27)             114.6096         estimate D2E/DX2                !
 ! A39   A(3,9,31)             114.9758         estimate D2E/DX2                !
 ! A40   A(1,10,6)             104.3962         estimate D2E/DX2                !
 ! A41   A(1,10,19)            118.6607         estimate D2E/DX2                !
 ! A42   A(6,10,19)            123.3054         estimate D2E/DX2                !
 ! A43   A(5,18,23)            114.1308         estimate D2E/DX2                !
 ! A44   A(10,19,20)           105.6739         estimate D2E/DX2                !
 ! A45   A(10,19,21)           106.1205         estimate D2E/DX2                !
 ! A46   A(10,19,22)           109.6015         estimate D2E/DX2                !
 ! A47   A(20,19,21)           109.8462         estimate D2E/DX2                !
 ! A48   A(20,19,22)           112.4746         estimate D2E/DX2                !
 ! A49   A(21,19,22)           112.6914         estimate D2E/DX2                !
 ! A50   A(18,23,24)           111.0121         estimate D2E/DX2                !
 ! A51   A(18,23,25)           111.4383         estimate D2E/DX2                !
 ! A52   A(18,23,26)           105.8583         estimate D2E/DX2                !
 ! A53   A(24,23,25)           109.6853         estimate D2E/DX2                !
 ! A54   A(24,23,26)           109.5178         estimate D2E/DX2                !
 ! A55   A(25,23,26)           109.2393         estimate D2E/DX2                !
 ! A56   A(8,27,28)            111.3099         estimate D2E/DX2                !
 ! A57   A(8,27,29)            110.4894         estimate D2E/DX2                !
 ! A58   A(8,27,30)            106.1463         estimate D2E/DX2                !
 ! A59   A(28,27,29)           109.9774         estimate D2E/DX2                !
 ! A60   A(28,27,30)           109.702          estimate D2E/DX2                !
 ! A61   A(29,27,30)           109.1258         estimate D2E/DX2                !
 ! A62   A(9,31,32)            122.1301         estimate D2E/DX2                !
 ! A63   A(9,31,33)            110.4414         estimate D2E/DX2                !
 ! A64   A(32,31,33)           127.4235         estimate D2E/DX2                !
 ! A65   A(31,33,34)           111.4761         estimate D2E/DX2                !
 ! A66   A(31,33,35)           108.828          estimate D2E/DX2                !
 ! A67   A(31,33,36)           109.3564         estimate D2E/DX2                !
 ! A68   A(34,33,35)           107.7034         estimate D2E/DX2                !
 ! A69   A(34,33,36)           110.8235         estimate D2E/DX2                !
 ! A70   A(35,33,36)           108.5758         estimate D2E/DX2                !
 ! D1    D(10,1,2,3)            91.6606         estimate D2E/DX2                !
 ! D2    D(10,1,2,7)           -26.2346         estimate D2E/DX2                !
 ! D3    D(10,1,2,13)         -140.0648         estimate D2E/DX2                !
 ! D4    D(11,1,2,3)           -25.3435         estimate D2E/DX2                !
 ! D5    D(11,1,2,7)          -143.2387         estimate D2E/DX2                !
 ! D6    D(11,1,2,13)          102.9311         estimate D2E/DX2                !
 ! D7    D(12,1,2,3)          -155.1695         estimate D2E/DX2                !
 ! D8    D(12,1,2,7)            86.9353         estimate D2E/DX2                !
 ! D9    D(12,1,2,13)          -26.8949         estimate D2E/DX2                !
 ! D10   D(2,1,10,6)            -2.5576         estimate D2E/DX2                !
 ! D11   D(2,1,10,19)         -144.4045         estimate D2E/DX2                !
 ! D12   D(11,1,10,6)          117.42           estimate D2E/DX2                !
 ! D13   D(11,1,10,19)         -24.4269         estimate D2E/DX2                !
 ! D14   D(12,1,10,6)         -120.9445         estimate D2E/DX2                !
 ! D15   D(12,1,10,19)          97.2085         estimate D2E/DX2                !
 ! D16   D(1,2,3,4)            -52.3273         estimate D2E/DX2                !
 ! D17   D(1,2,3,9)             69.2501         estimate D2E/DX2                !
 ! D18   D(1,2,3,14)          -171.9756         estimate D2E/DX2                !
 ! D19   D(7,2,3,4)             61.8713         estimate D2E/DX2                !
 ! D20   D(7,2,3,9)           -176.5514         estimate D2E/DX2                !
 ! D21   D(7,2,3,14)           -57.7771         estimate D2E/DX2                !
 ! D22   D(13,2,3,4)           178.5191         estimate D2E/DX2                !
 ! D23   D(13,2,3,9)           -59.9036         estimate D2E/DX2                !
 ! D24   D(13,2,3,14)           58.8708         estimate D2E/DX2                !
 ! D25   D(1,2,7,6)             52.7596         estimate D2E/DX2                !
 ! D26   D(3,2,7,6)            -70.3375         estimate D2E/DX2                !
 ! D27   D(13,2,7,6)           170.6353         estimate D2E/DX2                !
 ! D28   D(2,3,4,5)            -43.5235         estimate D2E/DX2                !
 ! D29   D(2,3,4,8)             76.0552         estimate D2E/DX2                !
 ! D30   D(2,3,4,15)          -161.0039         estimate D2E/DX2                !
 ! D31   D(9,3,4,5)           -165.8195         estimate D2E/DX2                !
 ! D32   D(9,3,4,8)            -46.2407         estimate D2E/DX2                !
 ! D33   D(9,3,4,15)            76.7001         estimate D2E/DX2                !
 ! D34   D(14,3,4,5)            74.0176         estimate D2E/DX2                !
 ! D35   D(14,3,4,8)          -166.4036         estimate D2E/DX2                !
 ! D36   D(14,3,4,15)          -43.4628         estimate D2E/DX2                !
 ! D37   D(2,3,9,31)            87.3711         estimate D2E/DX2                !
 ! D38   D(4,3,9,31)          -149.0654         estimate D2E/DX2                !
 ! D39   D(14,3,9,31)          -29.0463         estimate D2E/DX2                !
 ! D40   D(3,4,5,6)             35.8002         estimate D2E/DX2                !
 ! D41   D(3,4,5,16)           157.8441         estimate D2E/DX2                !
 ! D42   D(3,4,5,18)           -78.1693         estimate D2E/DX2                !
 ! D43   D(8,4,5,6)            -87.0766         estimate D2E/DX2                !
 ! D44   D(8,4,5,16)            34.9673         estimate D2E/DX2                !
 ! D45   D(8,4,5,18)           158.9539         estimate D2E/DX2                !
 ! D46   D(15,4,5,6)           154.2124         estimate D2E/DX2                !
 ! D47   D(15,4,5,16)          -83.7437         estimate D2E/DX2                !
 ! D48   D(15,4,5,18)           40.2429         estimate D2E/DX2                !
 ! D49   D(3,4,8,27)            97.9224         estimate D2E/DX2                !
 ! D50   D(5,4,8,27)          -141.5909         estimate D2E/DX2                !
 ! D51   D(15,4,8,27)          -24.473          estimate D2E/DX2                !
 ! D52   D(4,5,6,7)            -50.2997         estimate D2E/DX2                !
 ! D53   D(4,5,6,10)            59.32           estimate D2E/DX2                !
 ! D54   D(4,5,6,17)           177.3718         estimate D2E/DX2                !
 ! D55   D(16,5,6,7)          -171.3157         estimate D2E/DX2                !
 ! D56   D(16,5,6,10)          -61.696          estimate D2E/DX2                !
 ! D57   D(16,5,6,17)           56.3558         estimate D2E/DX2                !
 ! D58   D(18,5,6,7)            70.1292         estimate D2E/DX2                !
 ! D59   D(18,5,6,10)          179.7489         estimate D2E/DX2                !
 ! D60   D(18,5,6,17)          -62.1993         estimate D2E/DX2                !
 ! D61   D(4,5,18,23)          -95.7577         estimate D2E/DX2                !
 ! D62   D(6,5,18,23)          143.1575         estimate D2E/DX2                !
 ! D63   D(16,5,18,23)          26.0631         estimate D2E/DX2                !
 ! D64   D(5,6,7,2)             65.7356         estimate D2E/DX2                !
 ! D65   D(10,6,7,2)           -51.362          estimate D2E/DX2                !
 ! D66   D(17,6,7,2)          -160.5185         estimate D2E/DX2                !
 ! D67   D(5,6,10,1)           -88.5389         estimate D2E/DX2                !
 ! D68   D(5,6,10,19)           51.0248         estimate D2E/DX2                !
 ! D69   D(7,6,10,1)            32.7117         estimate D2E/DX2                !
 ! D70   D(7,6,10,19)          172.2754         estimate D2E/DX2                !
 ! D71   D(17,6,10,1)          147.463          estimate D2E/DX2                !
 ! D72   D(17,6,10,19)         -72.9733         estimate D2E/DX2                !
 ! D73   D(4,8,27,28)          -65.5418         estimate D2E/DX2                !
 ! D74   D(4,8,27,29)           56.955          estimate D2E/DX2                !
 ! D75   D(4,8,27,30)          175.1398         estimate D2E/DX2                !
 ! D76   D(3,9,31,32)           -3.9952         estimate D2E/DX2                !
 ! D77   D(3,9,31,33)          175.248          estimate D2E/DX2                !
 ! D78   D(1,10,19,20)        -178.6789         estimate D2E/DX2                !
 ! D79   D(1,10,19,21)         -62.0545         estimate D2E/DX2                !
 ! D80   D(1,10,19,22)          59.8958         estimate D2E/DX2                !
 ! D81   D(6,10,19,20)          47.0429         estimate D2E/DX2                !
 ! D82   D(6,10,19,21)         163.6673         estimate D2E/DX2                !
 ! D83   D(6,10,19,22)         -74.3824         estimate D2E/DX2                !
 ! D84   D(5,18,23,24)         -61.6            estimate D2E/DX2                !
 ! D85   D(5,18,23,25)          60.9814         estimate D2E/DX2                !
 ! D86   D(5,18,23,26)         179.638          estimate D2E/DX2                !
 ! D87   D(9,31,33,34)          38.9508         estimate D2E/DX2                !
 ! D88   D(9,31,33,35)         -79.6954         estimate D2E/DX2                !
 ! D89   D(9,31,33,36)         161.8465         estimate D2E/DX2                !
 ! D90   D(32,31,33,34)       -141.8562         estimate D2E/DX2                !
 ! D91   D(32,31,33,35)         99.4975         estimate D2E/DX2                !
 ! D92   D(32,31,33,36)        -18.9605         estimate D2E/DX2                !
 --------------------------------------------------------------------------------
 Trust Radius=3.00D-01 FncErr=1.00D-07 GrdErr=1.00D-06
 Number of steps in this run=    216 maximum allowed number of steps=    216.
 GradGradGradGradGradGradGradGradGradGradGradGradGradGradGradGradGradGrad

 Leave Link  103 at Mon Jan  9 18:04:02 2017, MaxMem= 13421772800 cpu:         0.3
 (Enter /share/apps//g09/l202.exe)
                          Input orientation:                          
 ---------------------------------------------------------------------
 Center     Atomic      Atomic             Coordinates (Angstroms)
 Number     Number       Type             X           Y           Z
 ---------------------------------------------------------------------
      1          6           0       -1.733220    0.491770    1.053030
      2          6           0       -0.774960   -0.497010    1.741990
      3          6           0        0.642440    0.025480    2.031000
      4          6           0        1.312280    0.620300    0.778330
      5          6           0        1.044690   -0.313220   -0.433880
      6          6           0       -0.345120   -0.964330   -0.400960
      7          8           0       -0.684320   -1.569960    0.756420
      8          8           0        0.814460    1.915530    0.442350
      9          8           0        0.600590    1.028150    3.056320
     10          8           0       -1.520450    0.188720   -0.392980
     11          1           0       -1.474800    1.539510    1.237440
     12          1           0       -2.787300    0.270790    1.250120
     13          1           0       -1.212200   -0.936420    2.645900
     14          1           0        1.221030   -0.843570    2.381780
     15          1           0        2.403730    0.661370    0.935680
     16          1           0        1.160120    0.281770   -1.357480
     17          1           0       -0.577140   -1.593050   -1.268670
     18          8           0        1.885350   -1.452890   -0.429830
     19          6           0       -1.573210    1.297550   -1.362990
     20          1           0       -1.415940    0.839580   -2.344370
     21          1           0       -2.586810    1.706860   -1.301960
     22          1           0       -0.803960    2.036600   -1.118040
     23          6           0        3.068030   -1.314870   -1.239490
     24          1           0        2.806000   -1.157870   -2.298020
     25          1           0        3.702830   -0.485670   -0.887250
     26          1           0        3.614490   -2.257480   -1.133920
     27          6           0        1.629340    3.010580    0.905670
     28          1           0        1.645280    3.059960    2.003060
     29          1           0        2.656650    2.917850    0.518030
     30          1           0        1.173940    3.921630    0.501450
     31          6           0        0.676150    0.537950    4.366440
     32          8           0        0.698250   -0.646310    4.609700
     33          6           0        0.740130    1.669700    5.345580
     34          1           0        0.084130    2.495760    5.047560
     35          1           0        1.770040    2.054790    5.376240
     36          1           0        0.475480    1.302850    6.341540
 ---------------------------------------------------------------------
                    Distance matrix (angstroms):
                    1          2          3          4          5
     1  C    0.000000
     2  C    1.539680   0.000000
     3  C    2.611056   1.538033   0.000000
     4  C    3.060564   2.556089   1.540026   0.000000
     5  C    3.252029   2.842414   2.520348   1.553228   0.000000
     6  C    2.482164   2.235036   2.805250   2.578517   1.535122
     7  O    2.332145   1.459721   2.435216   2.963803   2.446566
     8  O    2.981727   3.167912   2.475013   1.427700   2.405849
     9  O    3.122106   2.438384   1.434705   2.421174   3.765368
    10  O    1.492667   2.363065   3.252756   3.095575   2.614108
    11  H    1.094782   2.211732   2.721163   2.970445   3.545948
    12  H    1.094880   2.209291   3.526055   4.141413   4.226236
    13  H    2.201914   1.096044   2.177853   3.504881   3.868718
    14  H    3.503755   2.124479   1.101390   2.173084   2.870594
    15  H    4.142088   3.477938   2.169383   1.103498   2.161599
    16  H    3.771747   3.736007   3.437364   2.167819   1.104705
    17  H    3.327655   3.210064   3.872317   3.557954   2.228267
    18  O    4.367451   3.564794   3.128272   2.467018   1.416183
    19  C    2.551869   3.674037   4.248110   3.656497   3.211110
    20  H    3.429864   4.346915   4.903422   4.152412   3.321689
    21  H    2.784069   4.171987   4.935962   4.550947   4.245242
    22  H    2.821980   3.820967   4.006636   3.174996   3.067122
    23  C    5.618861   4.932209   4.286739   3.301384   2.397126
    24  H    5.878381   5.438905   4.982140   3.854480   2.700123
    25  H    5.854119   5.192652   4.259512   3.116417   2.702035
    26  H    6.398369   5.535105   4.905273   4.151926   3.297586
    27  C    4.203918   4.333968   3.339335   2.414577   3.630958
    28  H    4.348841   4.310192   3.196019   2.750053   4.204489
    29  H    5.044110   4.993525   3.835613   2.674663   3.734215
    30  H    4.529874   4.986134   4.219242   3.315808   4.338837
    31  C    4.097058   3.172475   2.391243   3.644993   4.889109
    32  O    4.456139   3.227445   2.665354   4.081756   5.066426
    33  C    5.092246   4.469451   3.701276   4.721056   6.117752
    34  H    4.824418   4.541090   3.938734   4.822036   6.233717
    35  H    5.779793   5.118250   4.071881   4.838190   6.315940
    36  H    5.788311   5.094993   4.498923   5.667046   6.988705
                    6          7          8          9         10
     6  C    0.000000
     7  O    1.349582   0.000000
     8  O    3.217047   3.807049   0.000000
     9  O    4.100869   3.700096   2.768758   0.000000
    10  O    1.646508   2.261236   3.021830   4.135351   0.000000
    11  H    3.198397   3.244232   2.452401   2.806610   2.117779
    12  H    3.196221   2.838067   4.041081   3.913279   2.076396
    13  H    3.167959   2.061593   4.134804   2.704475   3.255111
    14  H    3.195473   2.607642   3.396958   2.084055   4.034926
    15  H    3.462035   3.814056   2.083764   2.807660   4.169883
    16  H    2.175648   3.361463   2.455207   4.511296   2.850329
    17  H    1.096377   2.028056   4.144186   5.192617   2.198038
    18  O    2.283533   2.832684   3.640571   4.467596   3.780967
    19  C    2.747691   3.674866   3.056488   4.932371   1.474180
    20  H    2.859648   3.994502   3.728024   5.767964   2.059724
    21  H    3.601698   4.312070   3.828159   5.441945   2.065942
    22  H    3.119346   4.066348   2.251390   4.518298   2.110386
    23  C    3.532082   4.257800   4.282832   5.480145   4.902194
    24  H    3.683185   4.656367   4.574019   6.189626   4.915349
    25  H    4.105057   4.808786   3.984505   5.240924   5.289779
    26  H    4.229418   4.746139   5.266764   6.118584   5.735895
    27  C    4.626628   5.133872   1.441468   3.100589   4.423863
    28  H    5.092732   5.330789   2.106133   2.515748   4.899681
    29  H    4.992643   5.599942   2.098580   3.773760   5.072105
    30  H    5.195622   5.803077   2.038910   3.902348   4.689814
    31  C    5.101759   4.396181   4.161170   1.400864   5.253484
    32  O    5.128009   4.196713   4.893193   2.286120   5.535947
    33  C    6.413938   5.795243   4.909951   2.381548   6.343075
    34  H    6.468605   5.961080   4.698724   2.526984   6.123446
    35  H    6.853103   6.364388   5.027504   2.793498   6.898800
    36  H    7.160642   6.386841   5.940600   3.299058   7.111876
                   11         12         13         14         15
    11  H    0.000000
    12  H    1.825505   0.000000
    13  H    2.860585   2.426211   0.000000
    14  H    3.775723   4.311515   2.449283   0.000000
    15  H    3.988130   5.215191   4.307289   2.398922   0.000000
    16  H    3.906190   4.730943   4.810295   3.905402   2.636142
    17  H    4.110877   3.834450   4.019742   4.137743   4.339027
    18  O    4.798422   5.256136   4.395642   2.952582   2.569714
    19  C    2.613516   3.058855   4.603493   5.139599   4.637312
    20  H    3.650031   3.889024   5.300800   5.667724   5.037893
    21  H    2.777251   2.935235   4.945916   5.879990   5.568265
    22  H    2.499082   3.558076   4.813808   4.964343   4.049481
    23  C    5.909312   6.557238   5.793086   4.092326   3.013002
    24  H    6.172567   6.776088   6.374740   4.950903   3.732060
    25  H    5.951766   6.874763   6.069913   4.119949   2.515241
    26  H    6.778005   7.284141   6.271298   4.481957   3.777416
    27  C    3.451058   5.208820   5.165420   4.147299   2.473736
    28  H    3.554271   5.290950   4.954744   3.944739   2.732724
    29  H    4.414323   6.097497   5.860992   4.436536   2.308701
    30  H    3.637582   5.438802   5.821768   5.122986   3.511443
    31  C    3.926875   4.666724   2.949558   2.478783   3.843160
    32  O    4.568599   4.927160   2.755085   2.296919   4.256420
    33  C    4.669013   5.583234   4.229861   3.915597   4.819908
    34  H    4.226309   5.255107   4.385009   4.421544   5.064888
    35  H    5.284332   6.401318   5.029498   4.203414   4.696994
    36  H    5.469135   6.134610   4.639003   4.565377   5.775203
                   16         17         18         19         20
    16  H    0.000000
    17  H    2.557520   0.000000
    18  O    2.096554   2.605217   0.000000
    19  C    2.915979   3.058859   4.516342   0.000000
    20  H    2.814461   2.788979   4.451898   1.094339   0.000000
    21  H    4.009171   3.863844   5.544804   1.094826   1.791572
    22  H    2.644687   3.639848   4.458987   1.094505   1.819687
    23  C    2.490643   3.655886   1.439907   5.327391   5.095920
    24  H    2.380357   3.562945   2.103513   5.106941   4.670838
    25  H    2.697305   4.437332   2.109024   5.589526   5.484642
    26  H    3.538602   4.246103   2.032986   6.293087   6.030107
    27  C    3.576090   5.548848   4.666012   4.282244   4.954769
    28  H    4.387134   6.106871   5.132485   4.979464   5.762057
    29  H    3.564556   5.830773   4.538360   4.904623   5.394305
    30  H    4.087101   6.050727   5.500805   4.231875   4.930031
    31  C    5.750054   6.153565   5.331962   6.201853   7.035822
    32  O    6.056558   6.089185   5.239908   6.679158   7.418676
    33  C    6.858116   7.491932   6.664642   7.105980   8.029512
    34  H    6.861781   7.553172   6.988421   6.728866   7.722291
    35  H    6.989892   7.935416   6.784362   7.560949   8.440084
    36  H    7.796553   8.210331   7.445353   7.972261   8.901524
                   21         22         23         24         25
    21  H    0.000000
    22  H    1.822391   0.000000
    23  C    6.411862   5.122442   0.000000
    24  H    6.187181   4.962741   1.101723   0.000000
    25  H    6.673735   5.169745   1.102097   1.801785   0.000000
    26  H    7.362089   6.161337   1.094658   1.793858   1.791078
    27  C    4.934495   3.311342   5.037962   5.387405   4.442712
    28  H    5.537565   4.097232   5.628276   6.134872   5.015864
    29  H    5.680910   3.927995   4.601525   4.956202   3.827957
    30  H    4.722365   3.176189   5.834328   6.025112   5.267643
    31  C    6.644096   5.875049   6.370281   7.199104   6.148971
    32  O    7.160779   6.500896   6.346326   7.240228   6.266559
    33  C    7.433687   6.655615   7.595388   8.407591   7.229895
    34  H    6.933447   6.246131   7.934202   8.643792   7.563457
    35  H    7.981325   6.985806   7.537060   8.383833   7.030002
    36  H    8.244024   7.603992   8.428866   9.280542   8.116033
                   26         27         28         29         30
    26  H    0.000000
    27  C    5.987755   0.000000
    28  H    6.480247   1.098616   0.000000
    29  H    5.516379   1.101921   1.802326   0.000000
    30  H    6.841938   1.095808   1.794288   1.790608   0.000000
    31  C    6.833903   4.358830   3.589612   4.939288   5.160933
    32  O    6.639992   5.287685   4.629025   5.768911   6.161986
    33  C    8.103617   4.722442   3.731563   5.341925   5.359569
    34  H    8.559639   4.450614   3.467635   5.226152   4.887526
    35  H    8.023706   4.573765   3.521970   5.013298   5.253951
    36  H    8.855046   5.813469   4.824757   6.424873   6.438362
                   31         32         33         34         35
    31  C    0.000000
    32  O    1.209188   0.000000
    33  C    1.497887   2.430468   0.000000
    34  H    2.155790   3.231326   1.096142   0.000000
    35  H    2.125346   3.005372   1.099977   1.773352   0.000000
    36  H    2.127524   2.616891   1.093872   1.802935   1.781321
                   36
    36  H    0.000000
 Stoichiometry    C11H19O6(1+)
 Framework group  C1[X(C11H19O6)]
 Deg. of freedom   102
 Full point group                 C1      NOp   1
 Largest Abelian subgroup         C1      NOp   1
 Largest concise Abelian subgroup C1      NOp   1
                         Standard orientation:                         
 ---------------------------------------------------------------------
 Center     Atomic      Atomic             Coordinates (Angstroms)
 Number     Number       Type             X           Y           Z
 ---------------------------------------------------------------------
      1          6           0       -0.152501   -2.091056   -0.498098
      2          6           0        0.317123   -0.828571   -1.243887
      3          6           0        0.767434    0.348820   -0.362686
      4          6           0       -0.288065    0.724575    0.693916
      5          6           0       -1.693432    0.723137    0.032509
      6          6           0       -1.860167   -0.370531   -1.031770
      7          8           0       -0.888795   -0.435525   -1.966427
      8          8           0       -0.327639   -0.188309    1.790914
      9          8           0        1.997131    0.026858    0.302570
     10          8           0       -1.621373   -1.858888   -0.369380
     11          1           0        0.280701   -2.184650    0.502964
     12          1           0       -0.047808   -3.002469   -1.095699
     13          1           0        1.077901   -1.052877   -2.000336
     14          1           0        0.923907    1.197831   -1.046614
     15          1           0       -0.089284    1.747406    1.057249
     16          1           0       -2.447593    0.591761    0.828974
     17          1           0       -2.858233   -0.422762   -1.482525
     18          8           0       -1.928528    1.892143   -0.731512
     19          6           0       -2.305847   -2.320681    0.851869
     20          1           0       -3.361416   -2.067679    0.712802
     21          1           0       -2.184357   -3.408487    0.875573
     22          1           0       -1.869157   -1.827909    1.726180
     23          6           0       -2.643557    2.923173   -0.025084
     24          1           0       -3.643964    2.574183    0.276887
     25          1           0       -2.085975    3.264510    0.862163
     26          1           0       -2.743632    3.754570   -0.730096
     27          6           0        0.406131    0.240275    2.955271
     28          1           0        1.484460    0.290967    2.751325
     29          1           0        0.041921    1.221009    3.301306
     30          1           0        0.211669   -0.509000    3.730878
     31          6           0        3.157733    0.321990   -0.424287
     32          8           0        3.117402    0.745368   -1.556215
     33          6           0        4.376316    0.054989    0.404829
     34          1           0        4.258461   -0.850305    1.011524
     35          1           0        4.530547    0.900216    1.091672
     36          1           0        5.249265   -0.026210   -0.249329
 ---------------------------------------------------------------------
 Rotational constants (GHZ):      0.6170997      0.3548298      0.3379822
 Leave Link  202 at Mon Jan  9 18:04:02 2017, MaxMem= 13421772800 cpu:         0.6
 (Enter /share/apps//g09/l301.exe)
 Standard basis: 6-311+G(d,p) (5D, 7F)
 Ernie: Thresh=  0.10000D-02 Tol=  0.10000D-05 Strict=F.
 There are   505 symmetry adapted cartesian basis functions of A   symmetry.
 There are   488 symmetry adapted basis functions of A   symmetry.
   488 basis functions,   764 primitive gaussians,   505 cartesian basis functions
    66 alpha electrons       66 beta electrons
       nuclear repulsion energy      1438.8389550685 Hartrees.
 IExCor= 1009 DFT=T Ex+Corr=PBE1PBE ExCW=0 ScaHFX=  0.250000
 ScaDFX=  0.750000  0.750000  1.000000  1.000000 ScalE2=  1.000000  1.000000
 IRadAn=      0 IRanWt=     -1 IRanGd=            0 ICorTp=0 IEmpDi=131
 NAtoms=   36 NActive=   36 NUniq=   36 SFac= 1.00D+00 NAtFMM=   60 NAOKFM=F Big=F
 Integral buffers will be    131072 words long.
 Raffenetti 2 integral format.
 Two-electron integral symmetry is turned on.
 R6Disp:  Grimme-D3 Dispersion energy=       -0.0259981484 Hartrees.
 Nuclear repulsion after empirical dispersion term =     1438.8129569201 Hartrees.
 Leave Link  301 at Mon Jan  9 18:04:02 2017, MaxMem= 13421772800 cpu:         0.4
 (Enter /share/apps//g09/l302.exe)
 NPDir=0 NMtPBC=     1 NCelOv=     1 NCel=       1 NClECP=     1 NCelD=      1
         NCelK=      1 NCelE2=     1 NClLst=     1 CellRange=     0.0.
 One-electron integrals computed using PRISM.
 NBasis=   488 RedAO= T EigKep=  2.44D-06  NBF=   488
 NBsUse=   488 1.00D-06 EigRej= -1.00D+00 NBFU=   488
 Precomputing XC quadrature grid using
 IXCGrd= 4 IRadAn=           0 IRanWt=          -1 IRanGd=           0 AccXCQ= 0.00D+00.
 Generated NRdTot=       0 NPtTot=           0 NUsed=           0 NTot=          32
 NSgBfM=   504   504   505   505   505 MxSgAt=    36 MxSgA2=    36.
 Leave Link  302 at Mon Jan  9 18:04:03 2017, MaxMem= 13421772800 cpu:        11.1
 (Enter /share/apps//g09/l303.exe)
 DipDrv:  MaxL=1.
 Leave Link  303 at Mon Jan  9 18:04:04 2017, MaxMem= 13421772800 cpu:         6.2
 (Enter /share/apps//g09/l401.exe)
 ExpMin= 4.38D-02 ExpMax= 8.59D+03 ExpMxC= 1.30D+03 IAcc=2 IRadAn=         4 AccDes= 0.00D+00
 Harris functional with IExCor= 1009 and IRadAn=       4 diagonalized for initial guess.
 HarFok:  IExCor= 1009 AccDes= 0.00D+00 IRadAn=         4 IDoV= 1 UseB2=F ITyADJ=14
 ICtDFT=  3500011 ScaDFX=  1.000000  1.000000  1.000000  1.000000
 FoFCou: FMM=F IPFlag=           0 FMFlag=      100000 FMFlg1=           0
         NFxFlg=           0 DoJE=T BraDBF=F KetDBF=T FulRan=T
         wScrn=  0.000000 ICntrl=     500 IOpCl=  0 I1Cent=   200000004 NGrid=           0
         NMat0=    1 NMatS0=      1 NMatT0=    0 NMatD0=    1 NMtDS0=    0 NMtDT0=    0
 Petite list used in FoFCou.
 Harris En= -881.097810718040    
 JPrj=0 DoOrth=F DoCkMO=F.
 Leave Link  401 at Mon Jan  9 18:04:05 2017, MaxMem= 13421772800 cpu:        24.4
 (Enter /share/apps//g09/l502.exe)
 Closed shell SCF:
 Using DIIS extrapolation, IDIIS=  1040.
 Integral symmetry usage will be decided dynamically.
 Keep R1 ints in memory in canonical form, NReq=7183787934.
 IVT=      797493 IEndB=      797493 NGot= 13421772800 MDV=  6302761722
 LenX=  6302761722 LenY=  6302506192
 Requested convergence on RMS density matrix=1.00D-08 within 128 cycles.
 Requested convergence on MAX density matrix=1.00D-06.
 Requested convergence on             energy=1.00D-06.
 No special actions if energy rises.
 FoFCou: FMM=F IPFlag=           0 FMFlag=           0 FMFlg1=           0
         NFxFlg=           0 DoJE=F BraDBF=F KetDBF=F FulRan=T
         wScrn=  0.000000 ICntrl=     600 IOpCl=  0 I1Cent=           0 NGrid=           0
         NMat0=    1 NMatS0= 119316 NMatT0=    0 NMatD0=    1 NMtDS0=    0 NMtDT0=    0
 Symmetry not used in FoFCou.

 Cycle   1  Pass 1  IDiag  1:
 E= -880.624843298630    
 DIIS: error= 1.44D-02 at cycle   1 NSaved=   1.
 NSaved= 1 IEnMin= 1 EnMin= -880.624843298630     IErMin= 1 ErrMin= 1.44D-02
 ErrMax= 1.44D-02  0.00D+00 EMaxC= 1.00D-01 BMatC= 3.99D-01 BMatP= 3.99D-01
 IDIUse=3 WtCom= 8.56D-01 WtEn= 1.44D-01
 Coeff-Com:  0.100D+01
 Coeff-En:   0.100D+01
 Coeff:      0.100D+01
 Gap=     0.264 Goal=   None    Shift=    0.000
 GapD=    0.264 DampG=1.000 DampE=0.500 DampFc=0.5000 IDamp=-1.
 Damping current iteration by 5.00D-01
 RMSDP=7.29D-03 MaxDP=8.77D-01              OVMax= 2.30D-01

 Cycle   2  Pass 1  IDiag  1:
 E= -880.729444512147     Delta-E=       -0.104601213517 Rises=F Damp=T
 DIIS: error= 6.51D-03 at cycle   2 NSaved=   2.
 NSaved= 2 IEnMin= 2 EnMin= -880.729444512147     IErMin= 2 ErrMin= 6.51D-03
 ErrMax= 6.51D-03  0.00D+00 EMaxC= 1.00D-01 BMatC= 5.41D-02 BMatP= 3.99D-01
 IDIUse=3 WtCom= 9.35D-01 WtEn= 6.51D-02
 Coeff-Com:  0.118D+00 0.882D+00
 Coeff-En:   0.232D+00 0.768D+00
 Coeff:      0.125D+00 0.875D+00
 Gap=     0.303 Goal=   None    Shift=    0.000
 RMSDP=5.44D-03 MaxDP=1.17D+00 DE=-1.05D-01 OVMax= 1.60D-01

 Cycle   3  Pass 1  IDiag  1:
 E= -880.869458845051     Delta-E=       -0.140014332905 Rises=F Damp=F
 DIIS: error= 9.74D-03 at cycle   3 NSaved=   3.
 NSaved= 3 IEnMin= 3 EnMin= -880.869458845051     IErMin= 2 ErrMin= 6.51D-03
 ErrMax= 9.74D-03  0.00D+00 EMaxC= 1.00D-01 BMatC= 6.13D-02 BMatP= 5.41D-02
 IDIUse=3 WtCom= 9.20D-02 WtEn= 9.08D-01
 Coeff-Com: -0.391D-01 0.530D+00 0.509D+00
 Coeff-En:   0.000D+00 0.000D+00 0.100D+01
 Coeff:     -0.360D-02 0.488D-01 0.955D+00
 Gap=     0.256 Goal=   None    Shift=    0.000
 RMSDP=3.54D-03 MaxDP=3.68D-01 DE=-1.40D-01 OVMax= 1.83D-01

 Cycle   4  Pass 1  IDiag  1:
 E= -880.723136872301     Delta-E=        0.146321972751 Rises=F Damp=F
 DIIS: error= 1.99D-02 at cycle   4 NSaved=   4.
 NSaved= 4 IEnMin= 3 EnMin= -880.869458845051     IErMin= 2 ErrMin= 6.51D-03
 ErrMax= 1.99D-02  0.00D+00 EMaxC= 1.00D-01 BMatC= 2.60D-01 BMatP= 5.41D-02
 IDIUse=2 WtCom= 0.00D+00 WtEn= 1.00D+00
 Coeff-En:   0.000D+00 0.000D+00 0.754D+00 0.246D+00
 Coeff:      0.000D+00 0.000D+00 0.754D+00 0.246D+00
 Gap=     0.245 Goal=   None    Shift=    0.000
 RMSDP=2.26D-03 MaxDP=3.27D-01 DE= 1.46D-01 OVMax= 8.07D-02

 Cycle   5  Pass 1  IDiag  1:
 E= -880.904123879448     Delta-E=       -0.180987007148 Rises=F Damp=F
 DIIS: error= 4.71D-03 at cycle   5 NSaved=   5.
 NSaved= 5 IEnMin= 5 EnMin= -880.904123879448     IErMin= 5 ErrMin= 4.71D-03
 ErrMax= 4.71D-03  0.00D+00 EMaxC= 1.00D-01 BMatC= 1.51D-02 BMatP= 5.41D-02
 IDIUse=3 WtCom= 9.53D-01 WtEn= 4.71D-02
 Coeff-Com:  0.673D-02 0.774D-04 0.335D+00 0.907D-02 0.649D+00
 Coeff-En:   0.000D+00 0.000D+00 0.242D+00 0.000D+00 0.758D+00
 Coeff:      0.642D-02 0.738D-04 0.330D+00 0.864D-02 0.655D+00
 Gap=     0.265 Goal=   None    Shift=    0.000
 RMSDP=7.26D-04 MaxDP=1.08D-01 DE=-1.81D-01 OVMax= 1.89D-02

 Cycle   6  Pass 1  IDiag  1:
 E= -880.915050394976     Delta-E=       -0.010926515528 Rises=F Damp=F
 DIIS: error= 5.49D-04 at cycle   6 NSaved=   6.
 NSaved= 6 IEnMin= 6 EnMin= -880.915050394976     IErMin= 6 ErrMin= 5.49D-04
 ErrMax= 5.49D-04  0.00D+00 EMaxC= 1.00D-01 BMatC= 2.30D-04 BMatP= 1.51D-02
 IDIUse=3 WtCom= 9.95D-01 WtEn= 5.49D-03
 Coeff-Com:  0.254D-03 0.427D-04 0.123D+00-0.366D-01 0.410D+00 0.503D+00
 Coeff-En:   0.000D+00 0.000D+00 0.000D+00 0.000D+00 0.000D+00 0.100D+01
 Coeff:      0.253D-03 0.424D-04 0.123D+00-0.364D-01 0.408D+00 0.506D+00
 Gap=     0.258 Goal=   None    Shift=    0.000
 RMSDP=1.07D-04 MaxDP=1.55D-02 DE=-1.09D-02 OVMax= 1.61D-03

 Cycle   7  Pass 1  IDiag  1:
 E= -880.915205933016     Delta-E=       -0.000155538040 Rises=F Damp=F
 DIIS: error= 9.22D-05 at cycle   7 NSaved=   7.
 NSaved= 7 IEnMin= 7 EnMin= -880.915205933016     IErMin= 7 ErrMin= 9.22D-05
 ErrMax= 9.22D-05  0.00D+00 EMaxC= 1.00D-01 BMatC= 1.04D-05 BMatP= 2.30D-04
 IDIUse=1 WtCom= 1.00D+00 WtEn= 0.00D+00
 Coeff-Com: -0.384D-03 0.381D-03 0.515D-01-0.232D-01 0.198D+00 0.271D+00
 Coeff-Com:  0.503D+00
 Coeff:     -0.384D-03 0.381D-03 0.515D-01-0.232D-01 0.198D+00 0.271D+00
 Coeff:      0.503D+00
 Gap=     0.257 Goal=   None    Shift=    0.000
 RMSDP=2.18D-05 MaxDP=2.17D-03 DE=-1.56D-04 OVMax= 3.48D-04

 Cycle   8  Pass 1  IDiag  1:
 E= -880.915213283251     Delta-E=       -0.000007350236 Rises=F Damp=F
 DIIS: error= 3.60D-05 at cycle   8 NSaved=   8.
 NSaved= 8 IEnMin= 8 EnMin= -880.915213283251     IErMin= 8 ErrMin= 3.60D-05
 ErrMax= 3.60D-05  0.00D+00 EMaxC= 1.00D-01 BMatC= 8.32D-07 BMatP= 1.04D-05
 IDIUse=1 WtCom= 1.00D+00 WtEn= 0.00D+00
 Coeff-Com: -0.282D-04 0.961D-05 0.735D-02-0.539D-02 0.326D-01 0.428D-01
 Coeff-Com:  0.224D+00 0.698D+00
 Coeff:     -0.282D-04 0.961D-05 0.735D-02-0.539D-02 0.326D-01 0.428D-01
 Coeff:      0.224D+00 0.698D+00
 Gap=     0.257 Goal=   None    Shift=    0.000
 RMSDP=7.56D-06 MaxDP=1.05D-03 DE=-7.35D-06 OVMax= 1.68D-04

 Cycle   9  Pass 1  IDiag  1:
 E= -880.915213897185     Delta-E=       -0.000000613933 Rises=F Damp=F
 DIIS: error= 8.33D-06 at cycle   9 NSaved=   9.
 NSaved= 9 IEnMin= 9 EnMin= -880.915213897185     IErMin= 9 ErrMin= 8.33D-06
 ErrMax= 8.33D-06  0.00D+00 EMaxC= 1.00D-01 BMatC= 5.01D-08 BMatP= 8.32D-07
 IDIUse=1 WtCom= 1.00D+00 WtEn= 0.00D+00
 Coeff-Com:  0.269D-04-0.115D-03 0.881D-03-0.122D-02 0.476D-02 0.422D-02
 Coeff-Com:  0.768D-01 0.326D+00 0.588D+00
 Coeff:      0.269D-04-0.115D-03 0.881D-03-0.122D-02 0.476D-02 0.422D-02
 Coeff:      0.768D-01 0.326D+00 0.588D+00
 Gap=     0.257 Goal=   None    Shift=    0.000
 RMSDP=2.81D-06 MaxDP=3.75D-04 DE=-6.14D-07 OVMax= 3.43D-05

 Cycle  10  Pass 1  IDiag  1:
 E= -880.915213937206     Delta-E=       -0.000000040021 Rises=F Damp=F
 DIIS: error= 1.85D-06 at cycle  10 NSaved=  10.
 NSaved=10 IEnMin=10 EnMin= -880.915213937206     IErMin=10 ErrMin= 1.85D-06
 ErrMax= 1.85D-06  0.00D+00 EMaxC= 1.00D-01 BMatC= 4.25D-09 BMatP= 5.01D-08
 IDIUse=1 WtCom= 1.00D+00 WtEn= 0.00D+00
 Coeff-Com:  0.126D-04-0.508D-04-0.328D-03-0.325D-04-0.930D-03-0.227D-02
 Coeff-Com:  0.104D-01 0.704D-01 0.263D+00 0.660D+00
 Coeff:      0.126D-04-0.508D-04-0.328D-03-0.325D-04-0.930D-03-0.227D-02
 Coeff:      0.104D-01 0.704D-01 0.263D+00 0.660D+00
 Gap=     0.257 Goal=   None    Shift=    0.000
 RMSDP=8.58D-07 MaxDP=1.33D-04 DE=-4.00D-08 OVMax= 9.81D-06

 Cycle  11  Pass 1  IDiag  1:
 E= -880.915213940652     Delta-E=       -0.000000003446 Rises=F Damp=F
 DIIS: error= 5.58D-07 at cycle  11 NSaved=  11.
 NSaved=11 IEnMin=11 EnMin= -880.915213940652     IErMin=11 ErrMin= 5.58D-07
 ErrMax= 5.58D-07  0.00D+00 EMaxC= 1.00D-01 BMatC= 3.89D-10 BMatP= 4.25D-09
 IDIUse=1 WtCom= 1.00D+00 WtEn= 0.00D+00
 Coeff-Com:  0.102D-05-0.653D-05-0.270D-03 0.992D-04-0.944D-03-0.154D-02
 Coeff-Com: -0.274D-02 0.359D-02 0.663D-01 0.289D+00 0.646D+00
 Coeff:      0.102D-05-0.653D-05-0.270D-03 0.992D-04-0.944D-03-0.154D-02
 Coeff:     -0.274D-02 0.359D-02 0.663D-01 0.289D+00 0.646D+00
 Gap=     0.257 Goal=   None    Shift=    0.000
 RMSDP=2.43D-07 MaxDP=4.31D-05 DE=-3.45D-09 OVMax= 3.74D-06

 Cycle  12  Pass 1  IDiag  1:
 E= -880.915213940923     Delta-E=       -0.000000000271 Rises=F Damp=F
 DIIS: error= 1.92D-07 at cycle  12 NSaved=  12.
 NSaved=12 IEnMin=12 EnMin= -880.915213940923     IErMin=12 ErrMin= 1.92D-07
 ErrMax= 1.92D-07  0.00D+00 EMaxC= 1.00D-01 BMatC= 6.33D-11 BMatP= 3.89D-10
 IDIUse=1 WtCom= 1.00D+00 WtEn= 0.00D+00
 Coeff-Com: -0.235D-05 0.432D-05-0.102D-03 0.436D-04-0.339D-03-0.479D-03
 Coeff-Com: -0.245D-02-0.510D-02 0.825D-02 0.855D-01 0.343D+00 0.572D+00
 Coeff:     -0.235D-05 0.432D-05-0.102D-03 0.436D-04-0.339D-03-0.479D-03
 Coeff:     -0.245D-02-0.510D-02 0.825D-02 0.855D-01 0.343D+00 0.572D+00
 Gap=     0.257 Goal=   None    Shift=    0.000
 RMSDP=5.47D-08 MaxDP=6.68D-06 DE=-2.71D-10 OVMax= 1.06D-06

 Cycle  13  Pass 1  IDiag  1:
 E= -880.915213940964     Delta-E=       -0.000000000041 Rises=F Damp=F
 DIIS: error= 4.71D-08 at cycle  13 NSaved=  13.
 NSaved=13 IEnMin=13 EnMin= -880.915213940964     IErMin=13 ErrMin= 4.71D-08
 ErrMax= 4.71D-08  0.00D+00 EMaxC= 1.00D-01 BMatC= 2.77D-12 BMatP= 6.33D-11
 IDIUse=1 WtCom= 1.00D+00 WtEn= 0.00D+00
 Coeff-Com: -0.113D-05 0.279D-05-0.994D-05 0.516D-05-0.252D-04-0.206D-04
 Coeff-Com: -0.583D-03-0.211D-02-0.322D-02 0.270D-02 0.645D-01 0.215D+00
 Coeff-Com:  0.724D+00
 Coeff:     -0.113D-05 0.279D-05-0.994D-05 0.516D-05-0.252D-04-0.206D-04
 Coeff:     -0.583D-03-0.211D-02-0.322D-02 0.270D-02 0.645D-01 0.215D+00
 Coeff:      0.724D+00
 Gap=     0.257 Goal=   None    Shift=    0.000
 RMSDP=1.68D-08 MaxDP=2.32D-06 DE=-4.14D-11 OVMax= 4.44D-07

 Cycle  14  Pass 1  IDiag  1:
 E= -880.915213940981     Delta-E=       -0.000000000016 Rises=F Damp=F
 DIIS: error= 2.09D-08 at cycle  14 NSaved=  14.
 NSaved=14 IEnMin=14 EnMin= -880.915213940981     IErMin=14 ErrMin= 2.09D-08
 ErrMax= 2.09D-08  0.00D+00 EMaxC= 1.00D-01 BMatC= 4.97D-13 BMatP= 2.77D-12
 IDIUse=1 WtCom= 1.00D+00 WtEn= 0.00D+00
 Coeff-Com: -0.321D-06 0.960D-06 0.211D-05-0.254D-06 0.818D-05 0.134D-04
 Coeff-Com: -0.847D-04-0.646D-03-0.230D-02-0.674D-02-0.205D-02 0.475D-01
 Coeff-Com:  0.345D+00 0.619D+00
 Coeff:     -0.321D-06 0.960D-06 0.211D-05-0.254D-06 0.818D-05 0.134D-04
 Coeff:     -0.847D-04-0.646D-03-0.230D-02-0.674D-02-0.205D-02 0.475D-01
 Coeff:      0.345D+00 0.619D+00
 Gap=     0.257 Goal=   None    Shift=    0.000
 RMSDP=9.35D-09 MaxDP=1.91D-06 DE=-1.64D-11 OVMax= 1.23D-07

 Cycle  15  Pass 1  IDiag  1:
 E= -880.915213940988     Delta-E=       -0.000000000007 Rises=F Damp=F
 DIIS: error= 5.10D-09 at cycle  15 NSaved=  15.
 NSaved=15 IEnMin=15 EnMin= -880.915213940988     IErMin=15 ErrMin= 5.10D-09
 ErrMax= 5.10D-09  0.00D+00 EMaxC= 1.00D-01 BMatC= 3.29D-14 BMatP= 4.97D-13
 IDIUse=1 WtCom= 1.00D+00 WtEn= 0.00D+00
 Coeff-Com: -0.407D-07 0.208D-06 0.188D-05-0.621D-06 0.606D-05 0.638D-05
 Coeff-Com:  0.975D-05-0.127D-03-0.701D-03-0.290D-02-0.471D-02 0.718D-02
 Coeff-Com:  0.955D-01 0.261D+00 0.644D+00
 Coeff:     -0.407D-07 0.208D-06 0.188D-05-0.621D-06 0.606D-05 0.638D-05
 Coeff:      0.975D-05-0.127D-03-0.701D-03-0.290D-02-0.471D-02 0.718D-02
 Coeff:      0.955D-01 0.261D+00 0.644D+00
 Gap=     0.257 Goal=   None    Shift=    0.000
 RMSDP=2.40D-09 MaxDP=2.16D-07 DE=-7.28D-12 OVMax= 3.20D-08

 SCF Done:  E(RPBE1PBE) =  -880.915213941     A.U. after   15 cycles
            NFock= 15  Conv=0.24D-08     -V/T= 2.0044
 KE= 8.770888872703D+02 PE=-4.920834841808D+03 EE= 1.724017783676D+03
 Leave Link  502 at Mon Jan  9 18:07:45 2017, MaxMem= 13421772800 cpu:      1111.5
 (Enter /share/apps//g09/l601.exe)
 Copying SCF densities to generalized density rwf, IOpCl= 0 IROHF=0.

 **********************************************************************

            Population analysis using the SCF density.

 **********************************************************************

 Orbital symmetries:
       Occupied  (A) (A) (A) (A) (A) (A) (A) (A) (A) (A) (A) (A)
                 (A) (A) (A) (A) (A) (A) (A) (A) (A) (A) (A) (A)
                 (A) (A) (A) (A) (A) (A) (A) (A) (A) (A) (A) (A)
                 (A) (A) (A) (A) (A) (A) (A) (A) (A) (A) (A) (A)
                 (A) (A) (A) (A) (A) (A) (A) (A) (A) (A) (A) (A)
                 (A) (A) (A) (A) (A) (A)
       Virtual   (A) (A) (A) (A) (A) (A) (A) (A) (A) (A) (A) (A)
                 (A) (A) (A) (A) (A) (A) (A) (A) (A) (A) (A) (A)
                 (A) (A) (A) (A) (A) (A) (A) (A) (A) (A) (A) (A)
                 (A) (A) (A) (A) (A) (A) (A) (A) (A) (A) (A) (A)
                 (A) (A) (A) (A) (A) (A) (A) (A) (A) (A) (A) (A)
                 (A) (A) (A) (A) (A) (A) (A) (A) (A) (A) (A) (A)
                 (A) (A) (A) (A) (A) (A) (A) (A) (A) (A) (A) (A)
                 (A) (A) (A) (A) (A) (A) (A) (A) (A) (A) (A) (A)
                 (A) (A) (A) (A) (A) (A) (A) (A) (A) (A) (A) (A)
                 (A) (A) (A) (A) (A) (A) (A) (A) (A) (A) (A) (A)
                 (A) (A) (A) (A) (A) (A) (A) (A) (A) (A) (A) (A)
                 (A) (A) (A) (A) (A) (A) (A) (A) (A) (A) (A) (A)
                 (A) (A) (A) (A) (A) (A) (A) (A) (A) (A) (A) (A)
                 (A) (A) (A) (A) (A) (A) (A) (A) (A) (A) (A) (A)
                 (A) (A) (A) (A) (A) (A) (A) (A) (A) (A) (A) (A)
                 (A) (A) (A) (A) (A) (A) (A) (A) (A) (A) (A) (A)
                 (A) (A) (A) (A) (A) (A) (A) (A) (A) (A) (A) (A)
                 (A) (A) (A) (A) (A) (A) (A) (A) (A) (A) (A) (A)
                 (A) (A) (A) (A) (A) (A) (A) (A) (A) (A) (A) (A)
                 (A) (A) (A) (A) (A) (A) (A) (A) (A) (A) (A) (A)
                 (A) (A) (A) (A) (A) (A) (A) (A) (A) (A) (A) (A)
                 (A) (A) (A) (A) (A) (A) (A) (A) (A) (A) (A) (A)
                 (A) (A) (A) (A) (A) (A) (A) (A) (A) (A) (A) (A)
                 (A) (A) (A) (A) (A) (A) (A) (A) (A) (A) (A) (A)
                 (A) (A) (A) (A) (A) (A) (A) (A) (A) (A) (A) (A)
                 (A) (A) (A) (A) (A) (A) (A) (A) (A) (A) (A) (A)
                 (A) (A) (A) (A) (A) (A) (A) (A) (A) (A) (A) (A)
                 (A) (A) (A) (A) (A) (A) (A) (A) (A) (A) (A) (A)
                 (A) (A) (A) (A) (A) (A) (A) (A) (A) (A) (A) (A)
                 (A) (A) (A) (A) (A) (A) (A) (A) (A) (A) (A) (A)
                 (A) (A) (A) (A) (A) (A) (A) (A) (A) (A) (A) (A)
                 (A) (A) (A) (A) (A) (A) (A) (A) (A) (A) (A) (A)
                 (A) (A) (A) (A) (A) (A) (A) (A) (A) (A) (A) (A)
                 (A) (A) (A) (A) (A) (A) (A) (A) (A) (A) (A) (A)
                 (A) (A) (A) (A) (A) (A) (A) (A) (A) (A) (A) (A)
                 (A) (A)
 The electronic state is 1-A.
 Alpha  occ. eigenvalues --  -19.47618 -19.41116 -19.38265 -19.36190 -19.35908
 Alpha  occ. eigenvalues --  -19.32027 -10.52278 -10.48122 -10.45910 -10.45524
 Alpha  occ. eigenvalues --  -10.44754 -10.44610 -10.43576 -10.43388 -10.39274
 Alpha  occ. eigenvalues --  -10.39089 -10.34260  -1.32751  -1.26212  -1.25618
 Alpha  occ. eigenvalues --   -1.21863  -1.20683  -1.17610  -0.99339  -0.97472
 Alpha  occ. eigenvalues --   -0.93393  -0.89883  -0.87135  -0.85289  -0.83147
 Alpha  occ. eigenvalues --   -0.81867  -0.80542  -0.75075  -0.73757  -0.72818
 Alpha  occ. eigenvalues --   -0.69951  -0.67588  -0.67126  -0.66269  -0.65112
 Alpha  occ. eigenvalues --   -0.64415  -0.63060  -0.62426  -0.61961  -0.61106
 Alpha  occ. eigenvalues --   -0.60184  -0.59182  -0.58834  -0.58491  -0.57758
 Alpha  occ. eigenvalues --   -0.56400  -0.55560  -0.55106  -0.53457  -0.52982
 Alpha  occ. eigenvalues --   -0.52225  -0.51779  -0.50748  -0.50147  -0.48650
 Alpha  occ. eigenvalues --   -0.47708  -0.47490  -0.45093  -0.43016  -0.41927
 Alpha  occ. eigenvalues --   -0.41170
 Alpha virt. eigenvalues --   -0.15445  -0.11927  -0.11846  -0.11659  -0.09997
 Alpha virt. eigenvalues --   -0.09510  -0.09151  -0.07883  -0.07396  -0.06903
 Alpha virt. eigenvalues --   -0.06603  -0.06130  -0.05778  -0.05382  -0.04316
 Alpha virt. eigenvalues --   -0.04044  -0.03318  -0.03170  -0.02927  -0.02441
 Alpha virt. eigenvalues --   -0.02203  -0.01583  -0.01368  -0.01225  -0.00798
 Alpha virt. eigenvalues --   -0.00189   0.00151   0.00422   0.01020   0.01323
 Alpha virt. eigenvalues --    0.01726   0.02526   0.02618   0.02938   0.03326
 Alpha virt. eigenvalues --    0.03620   0.03713   0.03916   0.04125   0.04406
 Alpha virt. eigenvalues --    0.04848   0.05874   0.06177   0.06493   0.06862
 Alpha virt. eigenvalues --    0.07454   0.07584   0.08067   0.08463   0.08684
 Alpha virt. eigenvalues --    0.08868   0.09623   0.09892   0.10087   0.10460
 Alpha virt. eigenvalues --    0.10761   0.11069   0.11141   0.11612   0.12201
 Alpha virt. eigenvalues --    0.12561   0.12833   0.13401   0.13540   0.14142
 Alpha virt. eigenvalues --    0.14383   0.14711   0.15046   0.15553   0.15807
 Alpha virt. eigenvalues --    0.16667   0.16879   0.17128   0.17566   0.17964
 Alpha virt. eigenvalues --    0.18403   0.19225   0.19369   0.20589   0.20828
 Alpha virt. eigenvalues --    0.21734   0.22217   0.22391   0.22588   0.23269
 Alpha virt. eigenvalues --    0.23764   0.24163   0.24737   0.25331   0.25947
 Alpha virt. eigenvalues --    0.26460   0.26946   0.27213   0.28051   0.28526
 Alpha virt. eigenvalues --    0.29401   0.30154   0.30548   0.31427   0.32010
 Alpha virt. eigenvalues --    0.32374   0.32933   0.34000   0.34621   0.35742
 Alpha virt. eigenvalues --    0.36058   0.36409   0.37141   0.37594   0.38172
 Alpha virt. eigenvalues --    0.38556   0.39420   0.40129   0.40668   0.42421
 Alpha virt. eigenvalues --    0.42838   0.43437   0.43944   0.45320   0.46514
 Alpha virt. eigenvalues --    0.47060   0.47642   0.49194   0.49406   0.50094
 Alpha virt. eigenvalues --    0.51178   0.51605   0.52372   0.52604   0.53114
 Alpha virt. eigenvalues --    0.53825   0.54531   0.55209   0.55657   0.56268
 Alpha virt. eigenvalues --    0.56477   0.56708   0.58053   0.58405   0.59303
 Alpha virt. eigenvalues --    0.60210   0.60267   0.60778   0.61201   0.61477
 Alpha virt. eigenvalues --    0.62081   0.62987   0.63647   0.64080   0.65111
 Alpha virt. eigenvalues --    0.65465   0.67209   0.68881   0.70114   0.71566
 Alpha virt. eigenvalues --    0.72190   0.75346   0.77163   0.78660   0.80286
 Alpha virt. eigenvalues --    0.83128   0.83932   0.85477   0.86846   0.88457
 Alpha virt. eigenvalues --    0.90394   0.91106   0.92497   0.93264   0.94477
 Alpha virt. eigenvalues --    0.97246   0.98003   0.99556   1.00392   1.01296
 Alpha virt. eigenvalues --    1.02930   1.04422   1.06026   1.06679   1.08201
 Alpha virt. eigenvalues --    1.09771   1.10427   1.11384   1.11624   1.12883
 Alpha virt. eigenvalues --    1.15014   1.16464   1.16848   1.17432   1.19566
 Alpha virt. eigenvalues --    1.20495   1.21539   1.22379   1.23739   1.24783
 Alpha virt. eigenvalues --    1.26695   1.27954   1.29921   1.30806   1.31018
 Alpha virt. eigenvalues --    1.32876   1.33707   1.33889   1.34634   1.35621
 Alpha virt. eigenvalues --    1.36010   1.36744   1.37282   1.38872   1.40106
 Alpha virt. eigenvalues --    1.41351   1.41882   1.42347   1.43475   1.43888
 Alpha virt. eigenvalues --    1.44573   1.44981   1.45916   1.46748   1.47879
 Alpha virt. eigenvalues --    1.47887   1.49294   1.49586   1.50851   1.51533
 Alpha virt. eigenvalues --    1.51760   1.52689   1.53483   1.54898   1.55483
 Alpha virt. eigenvalues --    1.56237   1.57129   1.57522   1.57844   1.58919
 Alpha virt. eigenvalues --    1.60523   1.61369   1.61954   1.63814   1.64355
 Alpha virt. eigenvalues --    1.65136   1.65273   1.66672   1.68290   1.69608
 Alpha virt. eigenvalues --    1.70742   1.71201   1.71863   1.73048   1.73649
 Alpha virt. eigenvalues --    1.75554   1.77671   1.78392   1.79721   1.80427
 Alpha virt. eigenvalues --    1.80643   1.83344   1.85228   1.86232   1.87707
 Alpha virt. eigenvalues --    1.88531   1.90073   1.92489   1.93484   1.94131
 Alpha virt. eigenvalues --    1.96589   1.97770   1.98645   1.99754   2.01519
 Alpha virt. eigenvalues --    2.02493   2.03847   2.04026   2.05025   2.06902
 Alpha virt. eigenvalues --    2.07962   2.10374   2.11943   2.13043   2.14423
 Alpha virt. eigenvalues --    2.16957   2.17583   2.18666   2.21424   2.24889
 Alpha virt. eigenvalues --    2.27031   2.31378   2.32666   2.33807   2.34313
 Alpha virt. eigenvalues --    2.37320   2.37423   2.38118   2.39216   2.39730
 Alpha virt. eigenvalues --    2.40410   2.40764   2.41551   2.43309   2.43540
 Alpha virt. eigenvalues --    2.45432   2.45994   2.47261   2.47817   2.48737
 Alpha virt. eigenvalues --    2.49256   2.50678   2.51707   2.52270   2.54269
 Alpha virt. eigenvalues --    2.55454   2.56712   2.57199   2.59388   2.61957
 Alpha virt. eigenvalues --    2.63537   2.66912   2.68126   2.69205   2.71001
 Alpha virt. eigenvalues --    2.72329   2.73918   2.74503   2.76434   2.76992
 Alpha virt. eigenvalues --    2.78815   2.81015   2.81666   2.82144   2.83369
 Alpha virt. eigenvalues --    2.84881   2.87396   2.87810   2.88507   2.91073
 Alpha virt. eigenvalues --    2.92831   2.92979   2.95887   2.98638   2.99087
 Alpha virt. eigenvalues --    2.99690   3.00702   3.02111   3.04016   3.05878
 Alpha virt. eigenvalues --    3.06672   3.08656   3.09957   3.10147   3.11194
 Alpha virt. eigenvalues --    3.12673   3.13460   3.15987   3.18949   3.21145
 Alpha virt. eigenvalues --    3.25947   3.29219   3.31493   3.39689   3.46883
 Alpha virt. eigenvalues --    3.56644   3.58070   3.63439   3.66919   3.67962
 Alpha virt. eigenvalues --    3.68611   3.69679   3.69987   3.70940   3.71119
 Alpha virt. eigenvalues --    3.76219   3.80096   3.81840   3.84554   3.86157
 Alpha virt. eigenvalues --    3.88629   3.94212   3.96556   3.97649   3.98860
 Alpha virt. eigenvalues --    4.01161   4.03552   4.07081   4.09612   4.13254
 Alpha virt. eigenvalues --    4.17179   4.26041   4.99573   5.01069   5.01671
 Alpha virt. eigenvalues --    5.04330   5.04640   5.07578   5.15692   5.19153
 Alpha virt. eigenvalues --    5.28017   5.30380   5.32588   5.35851   5.40647
 Alpha virt. eigenvalues --    5.51081   5.56190   5.57922   5.62195   5.78820
 Alpha virt. eigenvalues --   23.69196  23.75087  23.76076  23.81743  23.82951
 Alpha virt. eigenvalues --   23.83154  23.86441  23.88860  23.89499  23.92107
 Alpha virt. eigenvalues --   23.94358  49.88897  49.91423  49.93133  49.97630
 Alpha virt. eigenvalues --   50.00093  50.00833
          Condensed to atoms (all electrons):
               1          2          3          4          5          6
     1  C    8.129029  -2.255884   0.769725  -1.522402   0.609947  -0.164192
     2  C   -2.255884  11.802419  -2.504279   1.194569  -0.757523  -1.294388
     3  C    0.769725  -2.504279  14.708923  -8.345532   3.313802  -1.566739
     4  C   -1.522402   1.194569  -8.345532  22.354609 -10.056588   3.784761
     5  C    0.609947  -0.757523   3.313802 -10.056588  20.086326  -8.475288
     6  C   -0.164192  -1.294388  -1.566739   3.784761  -8.475288  14.715452
     7  O    0.013587   0.086784  -0.098938   0.032486  -0.129989   0.471631
     8  O    0.108254  -0.319186  -0.059431  -0.155199   0.241551  -0.083813
     9  O    0.124839  -0.136921   0.288637  -0.570643   0.146093  -0.080574
    10  O   -0.207084   0.287894   0.127534  -0.158099   0.396228  -0.704717
    11  H    0.414187  -0.046288  -0.040856   0.031992   0.008257   0.010396
    12  H    0.429845  -0.060261   0.011552   0.006929   0.002085  -0.014918
    13  H   -0.011575   0.428000  -0.033736  -0.007635   0.054249  -0.038817
    14  H   -0.013495  -0.149275   0.422585   0.046586  -0.002998   0.030469
    15  H    0.005358  -0.009395  -0.071180   0.419903   0.007770   0.010155
    16  H    0.019424  -0.044846  -0.010919  -0.083799   0.397577   0.062742
    17  H    0.022543   0.009585   0.017988  -0.046644   0.132811   0.219811
    18  O   -0.006725  -0.047568  -0.040186   0.041874   0.345478  -0.192593
    19  C   -0.214418   0.028147   0.048930   0.000892   0.070191  -0.229240
    20  H    0.025001  -0.005644   0.002856  -0.002607  -0.018730   0.020592
    21  H   -0.006500   0.009401  -0.000056  -0.003048   0.022727   0.001100
    22  H   -0.030433   0.021659  -0.021026   0.055376  -0.024585  -0.026308
    23  C   -0.013557   0.017347  -0.115987   0.239694  -0.369531   0.019661
    24  H    0.000723  -0.002607  -0.017158   0.018114  -0.074282   0.061055
    25  H    0.000496  -0.000100   0.054702   0.002765  -0.023328  -0.036696
    26  H    0.000057   0.001226  -0.008338  -0.007181   0.053615  -0.002312
    27  C    0.047459  -0.078665  -0.184100  -0.337511   0.103713   0.038694
    28  H   -0.003373   0.001076   0.058112  -0.063805  -0.010025   0.001783
    29  H    0.001538  -0.002492   0.022711  -0.038507   0.019596  -0.003316
    30  H   -0.002350   0.001730  -0.036113   0.083507  -0.007229   0.004073
    31  C    0.073188   0.129636  -0.492326  -0.237269   0.076570  -0.036820
    32  O   -0.009957  -0.097664   0.147851   0.028647   0.011353   0.000745
    33  C   -0.101677   0.002324   0.284185  -0.086861   0.017030   0.004691
    34  H    0.004430  -0.008330   0.006888   0.007509  -0.001620   0.000865
    35  H    0.000005  -0.002629  -0.027045   0.007627   0.001012  -0.000558
    36  H   -0.000549   0.005577  -0.003508  -0.002396  -0.000084   0.000048
               7          8          9         10         11         12
     1  C    0.013587   0.108254   0.124839  -0.207084   0.414187   0.429845
     2  C    0.086784  -0.319186  -0.136921   0.287894  -0.046288  -0.060261
     3  C   -0.098938  -0.059431   0.288637   0.127534  -0.040856   0.011552
     4  C    0.032486  -0.155199  -0.570643  -0.158099   0.031992   0.006929
     5  C   -0.129989   0.241551   0.146093   0.396228   0.008257   0.002085
     6  C    0.471631  -0.083813  -0.080574  -0.704717   0.010396  -0.014918
     7  O    7.615264   0.022480   0.012578  -0.087517   0.010874  -0.000270
     8  O    0.022480   8.286874   0.047112  -0.023089  -0.003394   0.002114
     9  O    0.012578   0.047112   8.513470  -0.002765   0.005508  -0.000413
    10  O   -0.087517  -0.023089  -0.002765   8.370778  -0.061578  -0.024228
    11  H    0.010874  -0.003394   0.005508  -0.061578   0.409327  -0.022156
    12  H   -0.000270   0.002114  -0.000413  -0.024228  -0.022156   0.408071
    13  H   -0.037941   0.000473  -0.005119   0.002876   0.001071  -0.001989
    14  H    0.013818   0.011605  -0.033837  -0.000403   0.000667   0.000079
    15  H   -0.000676  -0.062576   0.006461   0.000763  -0.000194   0.000028
    16  H    0.006403   0.004321  -0.000573  -0.006550  -0.000187  -0.000037
    17  H   -0.045370   0.000821   0.000388  -0.009350  -0.000112   0.000148
    18  O    0.015092   0.009322  -0.000919   0.011064  -0.000097   0.000096
    19  C    0.015179   0.005435  -0.001833   0.087098   0.008755   0.006141
    20  H   -0.000082  -0.001306  -0.000018  -0.038330   0.000224  -0.000265
    21  H   -0.001077  -0.000665  -0.000140  -0.039779  -0.001781   0.001538
    22  H    0.001624  -0.000316  -0.000280  -0.039248   0.006214  -0.000760
    23  C   -0.000742  -0.004368  -0.001423  -0.002555   0.000000   0.000058
    24  H    0.000346   0.001082   0.000003  -0.000638  -0.000002  -0.000000
    25  H   -0.000437  -0.003991   0.000000   0.000440  -0.000006  -0.000000
    26  H   -0.000085   0.000085   0.000011   0.000078  -0.000000  -0.000000
    27  C    0.005697   0.177393   0.030275  -0.003716   0.005355  -0.000237
    28  H    0.000099  -0.035328  -0.004529  -0.000407   0.000621  -0.000008
    29  H   -0.000003  -0.057865   0.000575   0.000023  -0.000182   0.000004
    30  H    0.000050  -0.071780   0.001460  -0.001207  -0.000011   0.000003
    31  C   -0.019632  -0.011602  -0.021317   0.009943  -0.006110   0.001931
    32  O   -0.002141  -0.002058  -0.164064  -0.000385  -0.000071  -0.000014
    33  C   -0.004099  -0.017693  -0.318567   0.001931   0.000063   0.000381
    34  H    0.000020  -0.000167   0.000959   0.000030  -0.000212  -0.000006
    35  H   -0.000001   0.000171  -0.000530  -0.000005   0.000019   0.000000
    36  H   -0.000007   0.000020   0.013944  -0.000002   0.000004   0.000000
              13         14         15         16         17         18
     1  C   -0.011575  -0.013495   0.005358   0.019424   0.022543  -0.006725
     2  C    0.428000  -0.149275  -0.009395  -0.044846   0.009585  -0.047568
     3  C   -0.033736   0.422585  -0.071180  -0.010919   0.017988  -0.040186
     4  C   -0.007635   0.046586   0.419903  -0.083799  -0.046644   0.041874
     5  C    0.054249  -0.002998   0.007770   0.397577   0.132811   0.345478
     6  C   -0.038817   0.030469   0.010155   0.062742   0.219811  -0.192593
     7  O   -0.037941   0.013818  -0.000676   0.006403  -0.045370   0.015092
     8  O    0.000473   0.011605  -0.062576   0.004321   0.000821   0.009322
     9  O   -0.005119  -0.033837   0.006461  -0.000573   0.000388  -0.000919
    10  O    0.002876  -0.000403   0.000763  -0.006550  -0.009350   0.011064
    11  H    0.001071   0.000667  -0.000194  -0.000187  -0.000112  -0.000097
    12  H   -0.001989   0.000079   0.000028  -0.000037   0.000148   0.000096
    13  H    0.381818  -0.004846  -0.000030  -0.000010   0.000363   0.000058
    14  H   -0.004846   0.407256  -0.000188   0.000059  -0.000326   0.004977
    15  H   -0.000030  -0.000188   0.463772  -0.004590   0.000037  -0.000321
    16  H   -0.000010   0.000059  -0.004590   0.452602  -0.003926  -0.034760
    17  H    0.000363  -0.000326   0.000037  -0.003926   0.413536   0.009839
    18  O    0.000058   0.004977  -0.000321  -0.034760   0.009839   7.885875
    19  C   -0.002099   0.000477   0.002024   0.003283  -0.005733  -0.000558
    20  H    0.000024  -0.000005   0.000002   0.000037   0.001293   0.000047
    21  H   -0.000006  -0.000004  -0.000011  -0.000200  -0.000014   0.000022
    22  H   -0.000049   0.000005  -0.000356  -0.000252  -0.000092  -0.000226
    23  C    0.000003  -0.000342  -0.000756   0.007667  -0.001834   0.126197
    24  H   -0.000001   0.000023   0.000024   0.010476  -0.000761  -0.042372
    25  H    0.000002  -0.000259   0.001586  -0.002912   0.000148  -0.029318
    26  H   -0.000001  -0.000001  -0.000184  -0.000014  -0.000014  -0.064712
    27  C    0.000178   0.003784  -0.003558   0.001043  -0.000166  -0.000835
    28  H    0.000005  -0.000520  -0.000926   0.000068  -0.000000   0.000256
    29  H   -0.000003   0.000181   0.010990  -0.000118  -0.000001  -0.000574
    30  H   -0.000003   0.000039  -0.000027  -0.000158  -0.000004   0.000073
    31  C   -0.002237  -0.020954   0.004335  -0.000762  -0.000894  -0.006168
    32  O    0.005133   0.009045  -0.000550   0.000005   0.000008  -0.000154
    33  C   -0.003658  -0.003761  -0.001395   0.000007  -0.000054  -0.000500
    34  H   -0.000045  -0.000092  -0.000014   0.000000  -0.000000   0.000000
    35  H    0.000023  -0.000035  -0.000046  -0.000000   0.000000  -0.000006
    36  H    0.000007   0.000057   0.000007   0.000000  -0.000000  -0.000000
              19         20         21         22         23         24
     1  C   -0.214418   0.025001  -0.006500  -0.030433  -0.013557   0.000723
     2  C    0.028147  -0.005644   0.009401   0.021659   0.017347  -0.002607
     3  C    0.048930   0.002856  -0.000056  -0.021026  -0.115987  -0.017158
     4  C    0.000892  -0.002607  -0.003048   0.055376   0.239694   0.018114
     5  C    0.070191  -0.018730   0.022727  -0.024585  -0.369531  -0.074282
     6  C   -0.229240   0.020592   0.001100  -0.026308   0.019661   0.061055
     7  O    0.015179  -0.000082  -0.001077   0.001624  -0.000742   0.000346
     8  O    0.005435  -0.001306  -0.000665  -0.000316  -0.004368   0.001082
     9  O   -0.001833  -0.000018  -0.000140  -0.000280  -0.001423   0.000003
    10  O    0.087098  -0.038330  -0.039779  -0.039248  -0.002555  -0.000638
    11  H    0.008755   0.000224  -0.001781   0.006214   0.000000  -0.000002
    12  H    0.006141  -0.000265   0.001538  -0.000760   0.000058  -0.000000
    13  H   -0.002099   0.000024  -0.000006  -0.000049   0.000003  -0.000001
    14  H    0.000477  -0.000005  -0.000004   0.000005  -0.000342   0.000023
    15  H    0.002024   0.000002  -0.000011  -0.000356  -0.000756   0.000024
    16  H    0.003283   0.000037  -0.000200  -0.000252   0.007667   0.010476
    17  H   -0.005733   0.001293  -0.000014  -0.000092  -0.001834  -0.000761
    18  O   -0.000558   0.000047   0.000022  -0.000226   0.126197  -0.042372
    19  C    5.322382   0.388142   0.392521   0.419052  -0.010475  -0.000436
    20  H    0.388142   0.444997  -0.013405  -0.017809  -0.000633  -0.000060
    21  H    0.392521  -0.013405   0.440729  -0.019712   0.000394  -0.000001
    22  H    0.419052  -0.017809  -0.019712   0.401673  -0.000870   0.000007
    23  C   -0.010475  -0.000633   0.000394  -0.000870   5.172953   0.409980
    24  H   -0.000436  -0.000060  -0.000001   0.000007   0.409980   0.516103
    25  H    0.000159   0.000008   0.000000  -0.000018   0.404888  -0.041464
    26  H    0.000010  -0.000001   0.000000  -0.000001   0.405131  -0.018704
    27  C   -0.014579  -0.000743  -0.000553   0.004310  -0.001861   0.002188
    28  H    0.000339   0.000001   0.000008  -0.000059   0.000042   0.000000
    29  H   -0.000085  -0.000007  -0.000003  -0.000167  -0.000426  -0.000003
    30  H   -0.000103  -0.000009  -0.000006   0.000462   0.000084  -0.000001
    31  C    0.000925  -0.000061  -0.000102  -0.000438  -0.001097  -0.000051
    32  O    0.000222   0.000000   0.000000  -0.000002   0.000330  -0.000001
    33  C    0.003635   0.000001   0.000015   0.000035   0.000357  -0.000008
    34  H   -0.000006  -0.000000  -0.000000  -0.000000  -0.000003  -0.000000
[...]
 ,0.00134317,-0.00029150,0.00102163,-0.00115481,-0.00009301,-0.00000894
 ,0.00001396,-0.00001853,-0.00002036,-0.00002359,-0.00027080,-0.0000166
 4,-0.00023425,0.00154392,0.00000584,-0.00103489,-0.00008903,-0.0001096
 1,0.00018495,0.00007300,-0.00010391,0.00007352,-0.00009563,0.00011076,
 0.00008328,0.00190378,0.00179879,-0.00049075,0.00087525,0.00197469,0.0
 0016729,-0.00036217,0.00004190,0.00042074,0.00016323,-0.00023983,0.000
 68366,-0.00725156,-0.01181921,0.52687212,0.00062902,-0.00027859,0.0002
 1988,-0.00308988,-0.00110261,0.00023539,-0.00489524,-0.00216036,-0.001
 26069,0.00061215,-0.00004871,-0.00047766,-0.00028672,-0.00004627,-0.00
 011836,-0.00053694,-0.00040692,0.00039365,0.00084219,0.00040667,-0.001
 40357,-0.00003415,-0.00025602,0.00069334,0.02708158,-0.00930093,0.0136
 3698,0.00009457,0.00041086,-0.00076366,-0.00028958,0.00010300,-0.00016
 313,0.00012983,-0.00005318,0.00009921,0.00110876,0.00074427,-0.0004511
 8,-0.00048691,-0.00016896,0.00039406,0.00010894,0.00012739,-0.00011585
 ,0.00009056,0.00003311,0.00004977,0.00004934,0.00008747,-0.00011556,0.
 00021739,0.00002956,0.00013575,-0.00001926,-0.00029322,0.00008440,-0.0
 0000619,0.00005536,-0.00004174,0.00001075,0.00001817,-0.00000649,-0.00
 005649,0.00001829,-0.00005647,-0.00004232,-0.00003316,-0.00002038,0.00
 001153,-0.00000118,0.00002082,0.00002799,0.00003594,-0.00001954,0.0000
 0588,-0.00001138,-0.00002185,0.00007818,0.00014889,-0.00003306,0.00009
 490,0.00008215,-0.00007855,-0.00000811,0.00001109,0.00001565,-0.000002
 99,-0.00001931,-0.00001905,-0.09295022,-0.08968186,0.01298692,0.047936
 67,0.00034487,-0.00076209,-0.00048859,-0.00323456,-0.00026500,0.001788
 93,0.00111368,-0.01339894,-0.01361829,0.00020002,0.00234557,0.00104700
 ,0.00002139,-0.00190701,0.00044527,-0.00045088,-0.00053347,0.00029442,
 0.00189283,0.00220122,0.00040431,-0.00025809,0.00162138,0.00042356,-0.
 00922717,-0.04228064,0.08046776,0.00000898,0.00082720,-0.00055053,-0.0
 0062342,0.00022290,-0.00050571,0.00015234,-0.00001704,0.00019272,0.002
 34321,0.00014159,0.00165281,-0.00158221,0.00242904,0.00280410,0.000163
 36,0.00000645,-0.00032793,0.00015943,0.00035416,0.00034938,0.00007693,
 0.00004616,-0.00005662,-0.00051428,0.00079162,0.00004930,-0.00012889,-
 0.00022679,-0.00004733,-0.00002013,0.00007293,-0.00004392,-0.00000063,
 0.00001739,-0.00004274,-0.00011435,0.00000864,-0.00014703,0.00022842,-
 0.00005046,-0.00017821,-0.00002451,-0.00001806,-0.00000231,0.00006489,
 -0.00003318,0.00005043,-0.00003813,0.00004291,0.00006642,-0.00002476,-
 0.00031818,-0.00129118,0.00050522,0.00062937,0.00017431,-0.00005554,0.
 00010884,0.00034031,0.00008985,0.00002776,0.00023639,-0.09298568,-0.74
 713575,0.09336188,0.11206840,0.84465407,0.00055846,-0.00016589,0.00022
 848,0.00039442,-0.00001607,0.00012546,0.00127728,0.00856765,0.00673908
 ,-0.00168735,0.00047725,0.00204496,-0.00027212,0.00090307,0.00035463,0
 .00026089,-0.00058863,0.00085875,-0.00078430,-0.00060017,-0.00181640,0
 .00087032,0.00199142,-0.00169251,0.01166020,0.07059537,-0.03849766,-0.
 00042830,0.00053558,-0.00090704,0.00036736,-0.00013082,0.00014175,-0.0
 0012481,-0.00004201,-0.00028119,0.00000513,0.00042716,-0.00223389,-0.0
 0078457,0.00065635,-0.00248480,-0.00002297,0.00002461,0.00003770,-0.00
 000516,-0.00011250,-0.00021491,-0.00006003,0.00006482,-0.00010952,0.00
 079981,-0.00047966,-0.00053365,0.00009039,-0.00046066,0.00039290,0.000
 03168,0.00003130,-0.00002040,0.00000104,0.00000788,0.00000207,0.000106
 90,0.00000779,0.00007714,-0.00059932,-0.00001770,0.00038193,0.00003784
 ,0.00004361,-0.00007243,-0.00001315,0.00004250,-0.00002538,0.00003571,
 -0.00003788,-0.00002609,-0.00079904,-0.00087629,-0.00024669,-0.0002607
 9,-0.00055405,-0.00003824,0.00014162,0.00002650,-0.00011703,-0.0000163
 0,0.00011484,-0.00017597,0.01666240,0.11412123,-0.13035202,-0.02426794
 ,-0.16721849,0.15376671,-0.00008664,-0.00007960,0.00004531,-0.00021397
 ,0.00049538,0.00078317,0.00469779,-0.00001119,0.00073259,0.00005899,-0
 .00073287,0.00018788,-0.00001874,0.00010752,-0.00005011,0.00012192,0.0
 0004024,-0.00002644,0.00020983,0.00017892,0.00026286,-0.00004726,0.000
 32236,0.00004847,0.01025881,0.00115363,0.00107662,-0.00003403,0.000045
 11,-0.00002445,-0.00000103,-0.00003107,0.00000804,-0.00001168,0.000025
 71,-0.00000787,-0.00016745,-0.00000536,0.00000110,-0.00015406,0.000067
 78,-0.00053590,-0.00002787,-0.00000189,0.00002141,-0.00002106,-0.00003
 257,-0.00005309,-0.00002275,-0.00000933,0.00001471,0.00002104,0.000014
 79,-0.00002432,-0.00000012,-0.00003513,0.00002345,0.00000329,0.0000038
 0,0.00000095,-0.00000331,-0.00000319,-0.00000076,0.00000828,-0.0000045
 2,-0.00000228,-0.00003299,-0.00000053,0.00002703,-0.00000101,0.0000030
 6,-0.00000910,0.00000083,-0.00000404,0.00000437,0.00000046,-0.00000026
 ,0.00000520,-0.00012086,-0.00010038,-0.00010691,0.00013592,-0.00008424
 ,0.00003549,0.00000309,0.00001920,0.00006018,-0.00000135,0.00002264,-0
 .00005049,-0.09149563,-0.00470277,-0.00782031,0.02509058,-0.01073214,-
 0.00124918,0.53671393,0.00007249,-0.00001070,0.00010543,-0.00059018,0.
 00003847,0.00019722,0.00028089,0.00037627,0.00495915,0.00011416,0.0008
 2057,0.00065569,-0.00016615,-0.00026798,0.00021247,-0.00013029,-0.0001
 1278,0.00016633,0.00024709,0.00019978,-0.00024695,0.00016438,0.0002220
 3,-0.00018832,-0.00059822,0.00978825,0.00281521,-0.00001776,0.00011626
 ,-0.00029602,0.00000673,-0.00001334,0.00005683,0.00001367,-0.00001127,
 -0.00000551,0.00049366,0.00007637,0.00033558,-0.00022252,-0.00022089,0
 .00018084,0.00000567,0.00001055,-0.00000425,0.00004050,0.00006203,0.00
 007452,0.00001508,0.00001519,-0.00002472,0.00006154,0.00004700,-0.0000
 8303,0.00000974,-0.00012161,0.00007630,0.00000114,0.00001188,-0.000012
 85,0.00000645,0.00000602,0.00000288,-0.00000823,0.00000838,0.00000127,
 -0.00005293,-0.00000770,0.00003673,0.00000042,0.00000371,-0.00001333,0
 .00000822,-0.00000055,0.00000528,0.00000013,0.00000049,0.00000609,-0.0
 0007482,-0.00013157,-0.00006244,-0.00006493,-0.00005853,-0.00001016,0.
 00001981,0.00000317,-0.00001353,-0.00001014,0.00000085,-0.00000839,-0.
 00589724,-0.15156388,-0.07083599,-0.01159824,-0.04463508,-0.02124842,-
 0.00696158,0.54142780,0.00000077,-0.00004984,0.00002116,0.00089235,-0.
 00005157,-0.00042988,-0.00033908,0.00456247,-0.00133933,-0.00031843,-0
 .00169181,-0.00073933,0.00019236,0.00075840,-0.00018646,0.00024330,-0.
 00019204,0.00027776,-0.00059252,-0.00040237,-0.00043658,0.00000857,0.0
 0036987,0.00002431,-0.00330956,-0.02740743,-0.04403067,-0.00015254,0.0
 0015360,-0.00006250,0.00012164,-0.00002910,0.00002677,-0.00005442,0.00
 000958,-0.00007523,-0.00017879,-0.00004243,-0.00009291,0.00010938,-0.0
 0010876,-0.00016353,-0.00000002,0.00003361,0.00001281,-0.00005330,-0.0
 0012989,-0.00018959,-0.00002740,-0.00000154,-0.00000623,0.00023432,-0.
 00019988,-0.00013386,0.00001975,-0.00009334,0.00011291,0.00001399,0.00
 000197,0.00000534,-0.00000418,-0.00000038,-0.00000198,0.00003344,-0.00
 000709,0.00001620,-0.00019302,-0.00001403,0.00012083,0.00000774,0.0000
 1496,-0.00001986,-0.00000840,0.00001724,-0.00000752,0.00001208,-0.0000
 1265,-0.00000779,-0.00017024,-0.00023316,0.00004588,-0.00000572,-0.000
 07966,0.00003577,0.00002784,0.00000117,-0.00003570,-0.00000047,0.00003
 714,-0.00004227,-0.00993643,-0.07000250,-0.14615628,0.00226409,0.00488
 416,0.01409066,-0.01559081,-0.05384609,0.57829226,0.00002208,-0.000019
 37,-0.00007500,0.00007560,0.00001247,-0.00005350,0.00001154,-0.0000378
 4,0.00027438,-0.00006494,0.00020180,-0.00004343,0.00000236,0.00001429,
 0.00002438,0.00004808,0.00001892,-0.00002920,-0.00005130,-0.00001828,0
 .00005133,-0.00011831,-0.00031546,-0.00012787,0.00013523,-0.00035108,0
 .00060076,-0.00003275,0.00000335,0.00006330,0.00004877,0.00002222,-0.0
 0001950,-0.00001429,-0.00001696,-0.00001712,0.00000671,-0.00003370,0.0
 0001861,-0.00002191,-0.00008369,-0.00001620,-0.00000072,0.00000152,0.0
 0000313,-0.00000082,0.00000435,0.00001065,-0.00000876,-0.00000222,0.00
 000372,0.00000068,-0.00003988,-0.00000520,0.00000669,0.00003758,-0.000
 02094,-0.00000099,-0.00000462,0.00000320,-0.00000281,-0.00000432,-0.00
 000225,0.00001579,0.00000002,0.00001282,0.00000204,0.00000483,0.000000
 65,0.00000210,0.00000094,0.00000154,-0.00000506,0.00000211,-0.00000345
 ,-0.00000080,-0.00000266,-0.00000229,0.00018277,0.00016647,0.00029084,
 -0.00010316,0.00004072,0.00003939,-0.00000974,-0.00001477,-0.00008504,
 0.00000027,-0.00001013,-0.00000279,0.00190919,-0.00543557,0.00061843,-
 0.00103490,-0.00215316,-0.00112426,-0.13349359,0.12740664,-0.04012162,
 0.14424033,0.00004157,-0.00007123,-0.00011838,-0.00002075,-0.00012953,
 -0.00008060,-0.00071984,-0.00000238,-0.00030555,0.00001131,0.00016637,
 0.00001801,0.00000865,-0.00006391,0.00001489,0.00002337,-0.00003186,-0
 .00000637,-0.00000772,0.00004571,0.00000921,-0.00004854,-0.00006803,-0
 .00001714,-0.00112416,0.00176679,0.00071864,-0.00003134,0.00004797,0.0
 0007226,-0.00000532,0.00003296,-0.00007533,-0.00001108,-0.00000667,-0.
 00001465,0.00013116,-0.00002544,0.00005470,-0.00005296,0.00010168,0.00
 029218,-0.00000166,0.00000238,-0.00000099,0.00000548,0.00001179,0.0000
 1593,-0.00000235,0.00000168,-0.00000229,-0.00004480,0.00001786,0.00001
 564,-0.00000825,0.00003416,-0.00002892,-0.00000112,-0.00000141,0.00000
 199,-0.00000203,-0.00000042,-0.00000535,0.00000181,-0.00000099,-0.0000
 0206,0.00002681,0.00000301,-0.00001565,-0.00000138,-0.00000166,0.00000
 236,-0.00000040,-0.00000244,0.00000090,-0.00000224,0.00000171,0.000001
 61,0.00003692,0.00005488,-0.00000199,0.00002619,0.00004633,-0.00001463
 ,-0.00000683,-0.00000289,0.00001029,0.00000590,-0.00000242,0.00001822,
 0.01536279,-0.02059051,0.01084470,-0.00267972,-0.00276360,-0.00476290,
 0.12740024,-0.20958124,0.05404098,-0.13604188,0.22798314,-0.00000524,-
 0.00009714,-0.00003587,-0.00003231,-0.00003376,-0.00000290,-0.00018209
 ,0.00016543,0.00048237,0.00005240,-0.00003219,0.00012162,-0.00000196,-
 0.00004965,0.00001302,-0.00000064,-0.00007204,0.00005685,0.00000650,0.
 00004203,-0.00007279,0.00001283,0.00021105,0.00003682,-0.00145370,0.00
 053154,-0.00179241,-0.00001466,0.00007885,0.00000318,-0.00001984,-0.00
 001415,-0.00006054,-0.00000226,0.00001388,0.00000302,0.00010455,0.0000
 0891,0.00008155,-0.00001960,-0.00002022,0.00007844,-0.00000338,0.00000
 820,-0.00000682,0.00000606,0.00000584,0.00000186,0.00000275,0.00000680
 ,-0.00000818,-0.00002201,0.00004148,0.00000613,-0.00001557,-0.00001311
 ,-0.00000098,-0.00000054,0.00000570,-0.00000173,-0.00000253,0.00000031
 ,-0.00000625,-0.00000566,-0.00000234,-0.00001383,0.00000604,-0.0000013
 6,-0.00000968,0.00000018,-0.00000167,0.00000030,0.00000339,-0.00000085
 ,0.00000300,-0.00000111,0.00000178,0.00000123,-0.00011041,-0.00008554,
 -0.00014826,0.00013162,-0.00001561,-0.00002647,-0.00000119,0.00002471,
 0.00007023,0.00001016,0.00001795,-0.00002044,0.01830437,-0.01480628,0.
 00865497,-0.00370418,-0.00368090,-0.00193626,-0.04137726,0.05543137,-0
 .06754474,0.04602336,-0.05830948,0.06676039,-0.00002497,0.00001205,0.0
 0001513,-0.00006405,0.00005514,0.00007795,0.00021718,-0.00028689,-0.00
 051068,0.00002273,-0.00007633,-0.00002171,0.00001108,-0.00003601,-0.00
 001943,-0.00002520,0.00001732,-0.00002510,0.00006739,0.00004877,0.0000
 5909,0.00004453,0.00012281,0.00007582,0.00061558,0.00016428,0.00063138
 ,0.00002611,-0.00001736,-0.00000357,-0.00002614,-0.00000494,0.00000652
 ,0.00001016,0.00000490,0.00001503,-0.00002031,0.00000648,-0.00000540,-
 0.00001417,0.00003415,-0.00001112,0.00000677,-0.00000552,-0.00000339,0
 .00000024,0.00000291,0.00000312,0.00000394,-0.00000178,0.00000261,-0.0
 0003157,0.00002891,0.00001957,-0.00000414,-0.00000092,-0.00000527,-0.0
 0000063,0.00000149,-0.00000098,0.00000087,0.00000095,0.00000081,-0.000
 00900,-0.00000067,-0.00000752,0.00002284,0.00000188,-0.00001332,-0.000
 00222,-0.00000213,0.00000158,0.00000266,-0.00000355,0.00000228,-0.0000
 0043,0.00000272,0.00000143,-0.00006190,-0.00005639,-0.00014985,0.00003
 122,0.00002650,-0.00007621,0.00000103,0.00000680,0.00004829,0.00000017
 ,0.00000072,0.00001863,-0.00246012,-0.00251702,0.00024722,-0.00008008,
 0.00192122,-0.00079281,-0.29027190,-0.08194196,0.00391299,-0.01653518,
 -0.00670515,0.00064537,0.31364736,0.00001016,-0.00001754,-0.00001822,-
 0.00003161,0.00006846,0.00017002,0.00066961,-0.00021069,-0.00035551,-0
 .00008858,-0.00000680,-0.00001760,0.00000372,0.00002527,-0.00002007,0.
 00000882,0.00002790,-0.00001315,0.00005487,0.00004893,0.00006633,-0.00
 005177,-0.00015497,-0.00006401,0.00147143,0.00048794,0.00074601,-0.000
 00319,-0.00000386,0.00001841,0.00000664,0.00001013,-0.00001800,-0.0000
 0383,-0.00000526,-0.00000613,0.00001463,-0.00000612,0.00001736,-0.0000
 9008,0.00000315,-0.00001220,0.00001904,0.00000988,-0.00002270,-0.00000
 218,-0.00000435,-0.00000134,-0.00000351,-0.00000058,0.00000180,0.00002
 311,-0.00002333,0.00000395,0.00000194,0.00001754,-0.00001352,-0.000000
 84,-0.00000139,0.00000081,-0.00000080,-0.00000113,-0.00000012,0.000005
 14,0.00000041,0.00000420,-0.00001508,-0.00000387,-0.00000042,0.0000057
 0,0.00000185,0.00000344,0.00000022,0.00000781,-0.00000582,-0.00000024,
 -0.00000352,-0.00000418,0.00007197,0.00007614,0.00012884,-0.00001644,0
 .00006166,0.00000868,-0.00000329,-0.00000031,-0.00003442,0.00000888,-0
 .00000330,0.00000803,-0.02775494,-0.01004014,0.00258340,0.00417681,-0.
 00323100,-0.00282108,-0.08434745,-0.06608943,-0.00069323,0.02474182,0.
 00903174,-0.00007951,0.08971272,0.07367731,-0.00000952,-0.00002528,0.0
 0003390,-0.00000884,0.00012169,0.00014981,0.00091356,0.00014089,-0.000
 03139,-0.00004450,-0.00037808,0.00007096,0.00002511,0.00002891,-0.0000
 6909,-0.00001063,-0.00003562,0.00006573,0.00005128,0.00004559,-0.00003
 816,0.00014629,0.00034349,0.00011809,0.00183202,-0.00021548,-0.0016078
 7,-0.00000614,0.00003359,-0.00004373,-0.00001187,-0.00001508,0.0000140
 9,-0.00000201,0.00000810,-0.00000681,0.00003615,0.00001689,0.00002357,
 -0.00003043,-0.00003183,-0.00008489,0.00002693,-0.00000086,-0.00003425
 ,-0.00000396,-0.00001562,-0.00002917,0.00000665,0.00000452,-0.00000558
 ,0.00000917,0.00003993,0.00000689,-0.00000637,-0.00003156,0.00001545,0
 .00000112,0.00000571,-0.00000282,0.00000205,0.00000365,-0.00000214,-0.
 00001178,-0.00000041,-0.00001266,-0.00001827,-0.00001382,-0.00000310,0
 .00000250,0.00000095,0.00000036,0.00000666,0.00000350,0.00000069,0.000
 00132,0.00000162,0.00000103,-0.00015385,-0.00023232,-0.00030005,-0.000
 04751,0.00005017,-0.00005791,0.00001534,0.00001379,0.00003520,0.000020
 96,0.00001602,0.00005668,-0.02523511,-0.00392492,0.00127024,0.00256954
 ,-0.00197891,-0.00066967,0.00253326,-0.00118890,-0.04475566,-0.0074851
 3,-0.00264880,-0.00091554,-0.00320522,0.00159419,0.04440670,0.00000383
 ,0.00001809,-0.00002808,0.00003667,0.00007606,0.00005288,0.00071635,-0
 .00004841,-0.00043333,-0.00005457,-0.00019234,-0.00008602,0.00003786,0
 .00003970,-0.00004406,0.00002968,0.00001078,-0.00001749,-0.00000201,0.
 00002052,0.00004908,0.00002479,0.00006337,0.00003152,0.00106599,-0.001
 17439,-0.00111855,-0.00001452,-0.00000526,0.00002110,0.00000871,0.0000
 0670,0.00001435,-0.00000559,-0.00000228,-0.00001082,-0.00000066,-0.000
 01009,-0.00001755,-0.00000410,-0.00006480,-0.00002894,0.00000881,-0.00
 001046,-0.00000912,-0.00000743,-0.00001158,-0.00001911,-0.00000181,-0.
 00000269,0.00000300,-0.00001108,0.00000303,0.00000448,0.00000262,0.000
 00690,-0.00000348,0.00000077,-0.00000054,0.00000095,0.00000044,0.00000
 026,-0.00000047,-0.00000063,-0.00000049,0.00000020,0.00000155,-0.00000
 220,-0.00000227,-0.00000049,0.00000050,0.00000001,0.00000025,-0.000000
 87,0.00000061,0.00000051,0.00000099,0.00000159,-0.00001344,-0.00004236
 ,-0.00005854,-0.00005878,0.00003221,-0.00002040,0.00000434,-0.00000293
 ,-0.00000934,0.00000512,0.00000110,0.00002884,-0.00198158,0.00100544,-
 0.00514870,-0.00040082,0.00081348,-0.00000905,-0.06109745,-0.02063321,
 0.06296235,0.00478980,0.00443731,-0.01833343,-0.00509984,-0.00859340,0
 .02809120,0.06201670,-0.00000795,-0.00003899,0.00000427,0.00025337,0.0
 0000844,-0.00010266,-0.00039788,0.00076550,-0.00100952,-0.00007672,-0.
 00051098,-0.00015759,0.00005396,0.00016719,-0.00006921,0.00004780,-0.0
 0006038,0.00007986,-0.00014229,-0.00011168,-0.00013722,0.00005300,0.00
 025850,0.00007975,-0.00084809,-0.00383479,-0.00533089,-0.00002855,0.00
 004569,-0.00000687,0.00000696,-0.00001953,-0.00000942,-0.00001275,0.00
 001266,-0.00001487,-0.00002512,-0.00000472,-0.00002388,0.00003718,0.00
 007022,0.00000571,0.00000297,0.00000721,-0.00000423,-0.00001270,-0.000
 03470,-0.00005480,-0.00000310,0.00000398,-0.00000511,0.00004287,-0.000
 02440,-0.00001609,-0.00000290,-0.00002420,0.00002359,0.00000291,0.0000
 0324,0.00000026,-0.00000106,0.00000173,-0.00000239,-0.00000012,-0.0000
 0270,-0.00000631,-0.00004003,-0.00000497,0.00001874,0.00000278,0.00000
 214,-0.00000305,0.00000090,0.00000357,-0.00000055,0.00000327,-0.000001
 59,-0.00000232,-0.00013504,-0.00013453,-0.00017443,0.00005242,-0.00002
 886,-0.00002373,0.00001068,0.00001362,0.00004276,0.00000634,0.00001888
 ,-0.00000522,0.00794265,0.01008258,-0.02387567,-0.00041680,0.00102709,
 0.00149428,-0.02202026,-0.08040850,0.09040363,-0.00809448,-0.00600352,
 0.02071995,-0.00051609,-0.00374852,0.00826429,0.02426187,0.08250533,-0
 .00000275,0.00000021,-0.00000894,0.00024344,-0.00001533,-0.00012903,-0
 .00008970,0.00083194,-0.00007858,-0.00007649,-0.00037627,-0.00013718,0
 .00004228,0.00016916,-0.00003867,0.00005713,-0.00004012,0.00004955,-0.
 00014949,-0.00009426,-0.00009567,0.00001325,0.00009728,0.00001765,-0.0
 0018383,-0.00417587,-0.00341256,-0.00003450,0.00002453,0.00001106,0.00
 002742,-0.00000675,0.00000769,-0.00001524,0.00000161,-0.00002256,-0.00
 004012,-0.00001204,-0.00004878,0.00003340,-0.00005191,-0.00008791,-0.0
 0000028,0.00000319,0.00000346,-0.00001301,-0.00003059,-0.00004223,-0.0
 0000556,0.00000099,-0.00000261,0.00004467,-0.00004292,-0.00002229,0.00
 000377,-0.00000965,0.00001845,0.00000279,-0.00000053,0.00000188,-0.000
 00076,0.00000027,-0.00000113,0.00000601,-0.00000171,0.00000298,-0.0000
 3654,-0.00000262,0.00002102,0.00000216,0.00000273,-0.00000324,-0.00000
 181,0.00000345,-0.00000163,0.00000278,-0.00000244,-0.00000221,-0.00004
 405,-0.00004847,-0.00000961,-0.00001613,-0.00002487,-0.00000440,0.0000
 0652,0.00000030,-0.00000653,0.00000052,0.00000827,-0.00000531,0.005429
 78,0.01085417,-0.01981531,-0.00066053,0.00114524,0.00320957,0.06105722
 ,0.08276972,-0.28662479,0.00119429,0.00027857,-0.00377131,-0.00093322,
 -0.00115422,0.00240111,-0.06586343,-0.09010106,0.30862809\\-0.00000434
 ,0.00000088,0.00000927,-0.00000250,0.00000489,0.00000678,-0.00000521,-
 0.00000653,0.00000112,-0.00000459,-0.00000124,-0.00000488,-0.00001929,
 0.00000099,-0.00000134,0.00001517,0.00000689,-0.00002161,-0.00000661,0
 .00000392,0.00001619,0.00000435,-0.00000638,-0.00000340,0.00000729,0.0
 0000297,0.00000238,-0.00000280,0.00000018,0.00000525,0.00000380,0.0000
 0220,0.00000263,0.00000127,0.00000698,0.00000615,-0.00000106,0.0000081
 3,0.00000480,-0.00000016,0.00000364,0.00000012,-0.00000146,-0.00000395
 ,-0.00000206,-0.00000380,-0.00000767,0.00000284,-0.00001058,-0.0000018
 2,0.00000833,-0.00000111,-0.00001082,0.00001005,0.00000738,-0.00000468
 ,-0.00001293,-0.00001077,-0.00000670,0.00000516,0.00000148,0.00000500,
 0.00000784,-0.00000397,-0.00000187,0.00000296,-0.00000069,-0.00001016,
 -0.00000624,-0.00000907,-0.00001093,0.00000151,-0.00000613,-0.00001006
 ,-0.00000172,-0.00000878,-0.00000966,-0.00000018,0.00000718,0.00001084
 ,-0.00000160,0.00000557,-0.00000263,-0.00000949,0.00000205,-0.00000751
 ,-0.00000662,0.00000634,-0.00000349,-0.00000933,0.00000179,0.00001465,
 -0.00000389,0.00000265,0.00000497,0.00000495,0.00001026,0.00000484,-0.
 00000363,0.00000951,0.00000805,-0.00000325,0.00000747,0.00000629,-0.00
 000387,0.00000937,0.00000980,-0.00000230\\\@


 ALL THINGS ARE POSSIBLE EXCEPT SKIING THROUGH A REVOLVING DOOR.
 Job cpu time:       0 days  6 hours 51 minutes 46.0 seconds.
 File lengths (MBytes):  RWF=    766 Int=      0 D2E=      0 Chk=     19 Scr=      1
 Normal termination of Gaussian 09 at Mon Jan  9 20:36:32 2017.
