 Entering Gaussian System, Link 0=g09
 Initial command:
 /share/apps//g09/l1.exe "/scratch/Gau-28996.inp" -scrdir="/scratch/"
 Entering Link 1 = /share/apps//g09/l1.exe PID=     28997.
  
 Copyright (c) 1988,1990,1992,1993,1995,1998,2003,2009,2013,
            Gaussian, Inc.  All Rights Reserved.
  
 This is part of the Gaussian(R) 09 program.  It is based on
 the Gaussian(R) 03 system (copyright 2003, Gaussian, Inc.),
 the Gaussian(R) 98 system (copyright 1998, Gaussian, Inc.),
 the Gaussian(R) 94 system (copyright 1995, Gaussian, Inc.),
 the Gaussian 92(TM) system (copyright 1992, Gaussian, Inc.),
 the Gaussian 90(TM) system (copyright 1990, Gaussian, Inc.),
 the Gaussian 88(TM) system (copyright 1988, Gaussian, Inc.),
 the Gaussian 86(TM) system (copyright 1986, Carnegie Mellon
 University), and the Gaussian 82(TM) system (copyright 1983,
 Carnegie Mellon University). Gaussian is a federally registered
 trademark of Gaussian, Inc.
  
 This software contains proprietary and confidential information,
 including trade secrets, belonging to Gaussian, Inc.
  
 This software is provided under written license and may be
 used, copied, transmitted, or stored only in accord with that
 written license.
  
 The following legend is applicable only to US Government
 contracts under FAR:
  
                    RESTRICTED RIGHTS LEGEND
  
 Use, reproduction and disclosure by the US Government is
 subject to restrictions as set forth in subparagraphs (a)
 and (c) of the Commercial Computer Software - Restricted
 Rights clause in FAR 52.227-19.
  
 Gaussian, Inc.
 340 Quinnipiac St., Bldg. 40, Wallingford CT 06492
  
  
 ---------------------------------------------------------------
 Warning -- This program may not be used in any manner that
 competes with the business of Gaussian, Inc. or will provide
 assistance to any competitor of Gaussian, Inc.  The licensee
 of this program is prohibited from giving any competitor of
 Gaussian, Inc. access to this program.  By using this program,
 the user acknowledges that Gaussian, Inc. is engaged in the
 business of creating and licensing software in the field of
 computational chemistry and represents and warrants to the
 licensee that it is not a competitor of Gaussian, Inc. and that
 it will not use this program in any manner prohibited above.
 ---------------------------------------------------------------
  

 Cite this work as:
 Gaussian 09, Revision D.01,
 M. J. Frisch, G. W. Trucks, H. B. Schlegel, G. E. Scuseria, 
 M. A. Robb, J. R. Cheeseman, G. Scalmani, V. Barone, B. Mennucci, 
 G. A. Petersson, H. Nakatsuji, M. Caricato, X. Li, H. P. Hratchian, 
 A. F. Izmaylov, J. Bloino, G. Zheng, J. L. Sonnenberg, M. Hada, 
 M. Ehara, K. Toyota, R. Fukuda, J. Hasegawa, M. Ishida, T. Nakajima, 
 Y. Honda, O. Kitao, H. Nakai, T. Vreven, J. A. Montgomery, Jr., 
 J. E. Peralta, F. Ogliaro, M. Bearpark, J. J. Heyd, E. Brothers, 
 K. N. Kudin, V. N. Staroverov, T. Keith, R. Kobayashi, J. Normand, 
 K. Raghavachari, A. Rendell, J. C. Burant, S. S. Iyengar, J. Tomasi, 
 M. Cossi, N. Rega, J. M. Millam, M. Klene, J. E. Knox, J. B. Cross, 
 V. Bakken, C. Adamo, J. Jaramillo, R. Gomperts, R. E. Stratmann, 
 O. Yazyev, A. J. Austin, R. Cammi, C. Pomelli, J. W. Ochterski, 
 R. L. Martin, K. Morokuma, V. G. Zakrzewski, G. A. Voth, 
 P. Salvador, J. J. Dannenberg, S. Dapprich, A. D. Daniels, 
 O. Farkas, J. B. Foresman, J. V. Ortiz, J. Cioslowski, 
 and D. J. Fox, Gaussian, Inc., Wallingford CT, 2013.
 
 ******************************************
 Gaussian 09:  EM64L-G09RevD.01 24-Apr-2013
                 8-Jan-2017 
 ******************************************
 %nproc=20
 Will use up to   20 processors via shared memory.
 %mem=100GB
 %chk=Ac-4_cGalMe.chk
 -------------------------------------------------------------------
 #P PBE1PBE/6-311+G(d,p) opt optcyc=999 freq EmpiricalDispersion=GD3
 -------------------------------------------------------------------
 1/6=999,14=-1,18=20,19=15,26=3,38=1/1,3;
 2/9=110,12=2,17=6,18=5,40=1/2;
 3/5=4,6=6,7=111,11=2,16=1,25=1,30=1,71=1,74=-13,124=31/1,2,3;
 4//1;
 5/5=2,38=5/2;
 6/7=2,8=2,9=2,10=2,28=1/1;
 7//1,2,3,16;
 1/6=999,14=-1,18=20,19=15,26=3/3(2);
 2/9=110/2;
 99//99;
 2/9=110/2;
 3/5=4,6=6,7=111,11=2,16=1,25=1,30=1,71=1,74=-13,124=31/1,2,3;
 4/5=5,16=3,69=1/1;
 5/5=2,38=5/2;
 7//1,2,3,16;
 1/6=999,14=-1,18=20,19=15,26=3/3(-5);
 2/9=110/2;
 6/7=2,8=2,9=2,10=2,19=2,28=1/1;
 99/9=1/99;
 Leave Link    1 at Sun Jan  8 09:31:16 2017, MaxMem= 13421772800 cpu:         1.7
 (Enter /share/apps//g09/l101.exe)
 -------
 disacch
 -------
 Symbolic Z-matrix:
 Charge =  1 Multiplicity = 1
 C                    -2.00714   0.55414   1.83255 
 C                    -0.57762   0.25228   1.38805 
 C                     0.30549   1.47985   1.25838 
 C                     1.75769   1.10882   0.86263 
 C                     1.74995  -0.09473  -0.12018 
 C                     0.36256  -0.25621  -0.73407 
 O                    -0.67095  -0.4435    0.10617 
 O                     2.46047   2.16664   0.24721 
 O                    -0.26037   2.43243   0.25533 
 O                    -1.89501   1.2228    3.07088 
 H                    -2.55798  -0.40044   1.92231 
 H                    -2.52588   1.17371   1.07427 
 H                    -0.10372  -0.42627   2.11706 
 H                     0.24714   2.06216   2.1855 
 H                     2.25391   0.78175   1.79711 
 H                     2.47465   0.12044  -0.92566 
 H                     0.3009   -0.97474  -1.55689 
 O                     2.00258  -1.33056   0.51321 
 C                    -3.16945   1.48255   3.67392 
 H                    -2.96766   1.99854   4.61842 
 H                    -3.7899    2.12741   3.02874 
 H                    -3.70914   0.54294   3.87778 
 C                     3.40347  -1.62704   0.65889 
 H                     3.89848  -1.6625   -0.32449 
 H                     3.9127   -0.888     1.29895 
 H                     3.45505  -2.61158   1.13427 
 C                     2.8285    3.23504   1.13863 
 H                     1.95336   3.82234   1.46096 
 H                     3.35443   2.84082   2.02301 
 H                     3.50688   3.88236   0.57329 
 C                    -0.15173   2.22022  -1.02498 
 O                     0.14884   1.10878  -1.58246 
 C                    -0.4239    3.38689  -1.89873 
 H                     0.52275   3.93684  -2.01986 
 H                    -1.14555   4.05945  -1.42311 
 H                    -0.76641   3.06017  -2.88467 
 
 NAtoms=     36 NQM=       36 NQMF=       0 NMMI=      0 NMMIF=      0
                NMic=       0 NMicF=      0.
                    Isotopes and Nuclear Properties:
 (Nuclear quadrupole moments (NQMom) in fm**2, nuclear magnetic moments (NMagM)
  in nuclear magnetons)

  Atom         1           2           3           4           5           6           7           8           9          10
 IAtWgt=          12          12          12          12          12          12          16          16          16          16
 AtmWgt=  12.0000000  12.0000000  12.0000000  12.0000000  12.0000000  12.0000000  15.9949146  15.9949146  15.9949146  15.9949146
 NucSpn=           0           0           0           0           0           0           0           0           0           0
 AtZEff=   0.0000000   0.0000000   0.0000000   0.0000000   0.0000000   0.0000000   0.0000000   0.0000000   0.0000000   0.0000000
 NQMom=    0.0000000   0.0000000   0.0000000   0.0000000   0.0000000   0.0000000   0.0000000   0.0000000   0.0000000   0.0000000
 NMagM=    0.0000000   0.0000000   0.0000000   0.0000000   0.0000000   0.0000000   0.0000000   0.0000000   0.0000000   0.0000000
 AtZNuc=   6.0000000   6.0000000   6.0000000   6.0000000   6.0000000   6.0000000   8.0000000   8.0000000   8.0000000   8.0000000

  Atom        11          12          13          14          15          16          17          18          19          20
 IAtWgt=           1           1           1           1           1           1           1          16          12           1
 AtmWgt=   1.0078250   1.0078250   1.0078250   1.0078250   1.0078250   1.0078250   1.0078250  15.9949146  12.0000000   1.0078250
 NucSpn=           1           1           1           1           1           1           1           0           0           1
 AtZEff=   0.0000000   0.0000000   0.0000000   0.0000000   0.0000000   0.0000000   0.0000000   0.0000000   0.0000000   0.0000000
 NQMom=    0.0000000   0.0000000   0.0000000   0.0000000   0.0000000   0.0000000   0.0000000   0.0000000   0.0000000   0.0000000
 NMagM=    2.7928460   2.7928460   2.7928460   2.7928460   2.7928460   2.7928460   2.7928460   0.0000000   0.0000000   2.7928460
 AtZNuc=   1.0000000   1.0000000   1.0000000   1.0000000   1.0000000   1.0000000   1.0000000   8.0000000   6.0000000   1.0000000

  Atom        21          22          23          24          25          26          27          28          29          30
 IAtWgt=           1           1          12           1           1           1          12           1           1           1
 AtmWgt=   1.0078250   1.0078250  12.0000000   1.0078250   1.0078250   1.0078250  12.0000000   1.0078250   1.0078250   1.0078250
 NucSpn=           1           1           0           1           1           1           0           1           1           1
 AtZEff=   0.0000000   0.0000000   0.0000000   0.0000000   0.0000000   0.0000000   0.0000000   0.0000000   0.0000000   0.0000000
 NQMom=    0.0000000   0.0000000   0.0000000   0.0000000   0.0000000   0.0000000   0.0000000   0.0000000   0.0000000   0.0000000
 NMagM=    2.7928460   2.7928460   0.0000000   2.7928460   2.7928460   2.7928460   0.0000000   2.7928460   2.7928460   2.7928460
 AtZNuc=   1.0000000   1.0000000   6.0000000   1.0000000   1.0000000   1.0000000   6.0000000   1.0000000   1.0000000   1.0000000

  Atom        31          32          33          34          35          36
 IAtWgt=          12          16          12           1           1           1
 AtmWgt=  12.0000000  15.9949146  12.0000000   1.0078250   1.0078250   1.0078250
 NucSpn=           0           0           0           1           1           1
 AtZEff=   0.0000000   0.0000000   0.0000000   0.0000000   0.0000000   0.0000000
 NQMom=    0.0000000   0.0000000   0.0000000   0.0000000   0.0000000   0.0000000
 NMagM=    0.0000000   0.0000000   0.0000000   2.7928460   2.7928460   2.7928460
 AtZNuc=   6.0000000   8.0000000   6.0000000   1.0000000   1.0000000   1.0000000
 Leave Link  101 at Sun Jan  8 09:31:16 2017, MaxMem= 13421772800 cpu:         1.9
 (Enter /share/apps//g09/l103.exe)

 GradGradGradGradGradGradGradGradGradGradGradGradGradGradGradGradGradGrad
 Berny optimization.
 Initialization pass.
                           ----------------------------
                           !    Initial Parameters    !
                           ! (Angstroms and Degrees)  !
 --------------------------                            --------------------------
 ! Name  Definition              Value          Derivative Info.                !
 --------------------------------------------------------------------------------
 ! R1    R(1,2)                  1.5272         estimate D2E/DX2                !
 ! R2    R(1,10)                 1.4118         estimate D2E/DX2                !
 ! R3    R(1,11)                 1.1058         estimate D2E/DX2                !
 ! R4    R(1,12)                 1.1081         estimate D2E/DX2                !
 ! R5    R(2,3)                  1.5178         estimate D2E/DX2                !
 ! R6    R(2,7)                  1.4615         estimate D2E/DX2                !
 ! R7    R(2,13)                 1.1029         estimate D2E/DX2                !
 ! R8    R(3,4)                  1.5502         estimate D2E/DX2                !
 ! R9    R(3,9)                  1.4946         estimate D2E/DX2                !
 ! R10   R(3,14)                 1.0964         estimate D2E/DX2                !
 ! R11   R(4,5)                  1.5539         estimate D2E/DX2                !
 ! R12   R(4,8)                  1.4112         estimate D2E/DX2                !
 ! R13   R(4,15)                 1.1075         estimate D2E/DX2                !
 ! R14   R(5,6)                  1.5257         estimate D2E/DX2                !
 ! R15   R(5,16)                 1.1047         estimate D2E/DX2                !
 ! R16   R(5,18)                 1.4115         estimate D2E/DX2                !
 ! R17   R(6,7)                  1.3451         estimate D2E/DX2                !
 ! R18   R(6,17)                 1.0941         estimate D2E/DX2                !
 ! R19   R(6,32)                 1.6213         estimate D2E/DX2                !
 ! R20   R(8,27)                 1.4393         estimate D2E/DX2                !
 ! R21   R(9,31)                 1.3023         estimate D2E/DX2                !
 ! R22   R(10,19)                1.4336         estimate D2E/DX2                !
 ! R23   R(18,23)                1.4393         estimate D2E/DX2                !
 ! R24   R(19,20)                1.095          estimate D2E/DX2                !
 ! R25   R(19,21)                1.1032         estimate D2E/DX2                !
 ! R26   R(19,22)                1.1026         estimate D2E/DX2                !
 ! R27   R(23,24)                1.1015         estimate D2E/DX2                !
 ! R28   R(23,25)                1.1023         estimate D2E/DX2                !
 ! R29   R(23,26)                1.0945         estimate D2E/DX2                !
 ! R30   R(27,28)                1.1021         estimate D2E/DX2                !
 ! R31   R(27,29)                1.1019         estimate D2E/DX2                !
 ! R32   R(27,30)                1.0949         estimate D2E/DX2                !
 ! R33   R(31,32)                1.2792         estimate D2E/DX2                !
 ! R34   R(31,33)                1.4828         estimate D2E/DX2                !
 ! R35   R(33,34)                1.1015         estimate D2E/DX2                !
 ! R36   R(33,35)                1.0951         estimate D2E/DX2                !
 ! R37   R(33,36)                1.0937         estimate D2E/DX2                !
 ! A1    A(2,1,10)             105.9366         estimate D2E/DX2                !
 ! A2    A(2,1,11)             108.6203         estimate D2E/DX2                !
 ! A3    A(2,1,12)             110.4589         estimate D2E/DX2                !
 ! A4    A(10,1,11)            112.1626         estimate D2E/DX2                !
 ! A5    A(10,1,12)            111.8751         estimate D2E/DX2                !
 ! A6    A(11,1,12)            107.7594         estimate D2E/DX2                !
 ! A7    A(1,2,3)              114.1825         estimate D2E/DX2                !
 ! A8    A(1,2,7)              106.8347         estimate D2E/DX2                !
 ! A9    A(1,2,13)             109.355          estimate D2E/DX2                !
 ! A10   A(3,2,7)              110.3201         estimate D2E/DX2                !
 ! A11   A(3,2,13)             107.7015         estimate D2E/DX2                !
 ! A12   A(7,2,13)             108.3175         estimate D2E/DX2                !
 ! A13   A(2,3,4)              111.9187         estimate D2E/DX2                !
 ! A14   A(2,3,9)              110.6429         estimate D2E/DX2                !
 ! A15   A(2,3,14)             109.0479         estimate D2E/DX2                !
 ! A16   A(4,3,9)              109.6267         estimate D2E/DX2                !
 ! A17   A(4,3,14)             113.1321         estimate D2E/DX2                !
 ! A18   A(9,3,14)             102.0554         estimate D2E/DX2                !
 ! A19   A(3,4,5)              110.0099         estimate D2E/DX2                !
 ! A20   A(3,4,8)              113.4797         estimate D2E/DX2                !
 ! A21   A(3,4,15)             105.9628         estimate D2E/DX2                !
 ! A22   A(5,4,8)              107.8928         estimate D2E/DX2                !
 ! A23   A(5,4,15)             107.8895         estimate D2E/DX2                !
 ! A24   A(8,4,15)             111.4819         estimate D2E/DX2                !
 ! A25   A(4,5,6)              109.9378         estimate D2E/DX2                !
 ! A26   A(4,5,16)             107.8817         estimate D2E/DX2                !
 ! A27   A(4,5,18)             113.169          estimate D2E/DX2                !
 ! A28   A(6,5,16)             108.8921         estimate D2E/DX2                !
 ! A29   A(6,5,18)             104.5157         estimate D2E/DX2                !
 ! A30   A(16,5,18)            112.3541         estimate D2E/DX2                !
 ! A31   A(5,6,7)              117.5225         estimate D2E/DX2                !
 ! A32   A(5,6,17)             115.0458         estimate D2E/DX2                !
 ! A33   A(5,6,32)             103.9638         estimate D2E/DX2                !
 ! A34   A(7,6,17)             109.5747         estimate D2E/DX2                !
 ! A35   A(7,6,32)             110.0489         estimate D2E/DX2                !
 ! A36   A(17,6,32)             98.7396         estimate D2E/DX2                !
 ! A37   A(2,7,6)              115.6291         estimate D2E/DX2                !
 ! A38   A(4,8,27)             114.4349         estimate D2E/DX2                !
 ! A39   A(3,9,31)             121.6245         estimate D2E/DX2                !
 ! A40   A(1,10,19)            112.5918         estimate D2E/DX2                !
 ! A41   A(5,18,23)            113.5768         estimate D2E/DX2                !
 ! A42   A(10,19,20)           106.5217         estimate D2E/DX2                !
 ! A43   A(10,19,21)           111.0918         estimate D2E/DX2                !
 ! A44   A(10,19,22)           111.0077         estimate D2E/DX2                !
 ! A45   A(20,19,21)           109.4289         estimate D2E/DX2                !
 ! A46   A(20,19,22)           109.4079         estimate D2E/DX2                !
 ! A47   A(21,19,22)           109.3281         estimate D2E/DX2                !
 ! A48   A(18,23,24)           110.7117         estimate D2E/DX2                !
 ! A49   A(18,23,25)           111.7334         estimate D2E/DX2                !
 ! A50   A(18,23,26)           105.9691         estimate D2E/DX2                !
 ! A51   A(24,23,25)           109.4114         estimate D2E/DX2                !
 ! A52   A(24,23,26)           109.7316         estimate D2E/DX2                !
 ! A53   A(25,23,26)           109.2144         estimate D2E/DX2                !
 ! A54   A(8,27,28)            111.9413         estimate D2E/DX2                !
 ! A55   A(8,27,29)            110.7055         estimate D2E/DX2                !
 ! A56   A(8,27,30)            106.1108         estimate D2E/DX2                !
 ! A57   A(28,27,29)           109.5674         estimate D2E/DX2                !
 ! A58   A(28,27,30)           109.1436         estimate D2E/DX2                !
 ! A59   A(29,27,30)           109.2813         estimate D2E/DX2                !
 ! A60   A(9,31,32)            126.129          estimate D2E/DX2                !
 ! A61   A(9,31,33)            115.8353         estimate D2E/DX2                !
 ! A62   A(32,31,33)           118.0305         estimate D2E/DX2                !
 ! A63   A(6,32,31)            122.304          estimate D2E/DX2                !
 ! A64   A(31,33,34)           107.451          estimate D2E/DX2                !
 ! A65   A(31,33,35)           110.3799         estimate D2E/DX2                !
 ! A66   A(31,33,36)           110.7108         estimate D2E/DX2                !
 ! A67   A(34,33,35)           107.9065         estimate D2E/DX2                !
 ! A68   A(34,33,36)           108.6125         estimate D2E/DX2                !
 ! A69   A(35,33,36)           111.6301         estimate D2E/DX2                !
 ! D1    D(10,1,2,3)           -57.8471         estimate D2E/DX2                !
 ! D2    D(10,1,2,7)           179.9048         estimate D2E/DX2                !
 ! D3    D(10,1,2,13)           62.8842         estimate D2E/DX2                !
 ! D4    D(11,1,2,3)          -178.5238         estimate D2E/DX2                !
 ! D5    D(11,1,2,7)            59.228          estimate D2E/DX2                !
 ! D6    D(11,1,2,13)          -57.7926         estimate D2E/DX2                !
 ! D7    D(12,1,2,3)            63.4913         estimate D2E/DX2                !
 ! D8    D(12,1,2,7)           -58.7568         estimate D2E/DX2                !
 ! D9    D(12,1,2,13)         -175.7774         estimate D2E/DX2                !
 ! D10   D(2,1,10,19)         -175.3665         estimate D2E/DX2                !
 ! D11   D(11,1,10,19)         -57.0162         estimate D2E/DX2                !
 ! D12   D(12,1,10,19)          64.2121         estimate D2E/DX2                !
 ! D13   D(1,2,3,4)            177.6227         estimate D2E/DX2                !
 ! D14   D(1,2,3,9)            -59.7964         estimate D2E/DX2                !
 ! D15   D(1,2,3,14)            51.6842         estimate D2E/DX2                !
 ! D16   D(7,2,3,4)            -62.0574         estimate D2E/DX2                !
 ! D17   D(7,2,3,9)             60.5235         estimate D2E/DX2                !
 ! D18   D(7,2,3,14)           172.004          estimate D2E/DX2                !
 ! D19   D(13,2,3,4)            55.976          estimate D2E/DX2                !
 ! D20   D(13,2,3,9)           178.5569         estimate D2E/DX2                !
 ! D21   D(13,2,3,14)          -69.9626         estimate D2E/DX2                !
 ! D22   D(1,2,7,6)            150.1211         estimate D2E/DX2                !
 ! D23   D(3,2,7,6)             25.4799         estimate D2E/DX2                !
 ! D24   D(13,2,7,6)           -92.1743         estimate D2E/DX2                !
 ! D25   D(2,3,4,5)             36.243          estimate D2E/DX2                !
 ! D26   D(2,3,4,8)            157.2192         estimate D2E/DX2                !
 ! D27   D(2,3,4,15)           -80.1289         estimate D2E/DX2                !
 ! D28   D(9,3,4,5)            -86.9146         estimate D2E/DX2                !
 ! D29   D(9,3,4,8)             34.0616         estimate D2E/DX2                !
 ! D30   D(9,3,4,15)           156.7136         estimate D2E/DX2                !
 ! D31   D(14,3,4,5)           159.915          estimate D2E/DX2                !
 ! D32   D(14,3,4,8)           -79.1088         estimate D2E/DX2                !
 ! D33   D(14,3,4,15)           43.5431         estimate D2E/DX2                !
 ! D34   D(2,3,9,31)           -76.6403         estimate D2E/DX2                !
 ! D35   D(4,3,9,31)            47.2671         estimate D2E/DX2                !
 ! D36   D(14,3,9,31)          167.4425         estimate D2E/DX2                !
 ! D37   D(3,4,5,6)             17.9162         estimate D2E/DX2                !
 ! D38   D(3,4,5,16)           136.533          estimate D2E/DX2                !
 ! D39   D(3,4,5,18)           -98.5234         estimate D2E/DX2                !
 ! D40   D(8,4,5,6)           -106.3572         estimate D2E/DX2                !
 ! D41   D(8,4,5,16)            12.2596         estimate D2E/DX2                !
 ! D42   D(8,4,5,18)           137.2032         estimate D2E/DX2                !
 ! D43   D(15,4,5,6)           133.0733         estimate D2E/DX2                !
 ! D44   D(15,4,5,16)         -108.31           estimate D2E/DX2                !
 ! D45   D(15,4,5,18)           16.6336         estimate D2E/DX2                !
 ! D46   D(3,4,8,27)            71.7829         estimate D2E/DX2                !
 ! D47   D(5,4,8,27)          -166.0577         estimate D2E/DX2                !
 ! D48   D(15,4,8,27)          -47.7667         estimate D2E/DX2                !
 ! D49   D(4,5,6,7)            -58.0631         estimate D2E/DX2                !
 ! D50   D(4,5,6,17)           170.6001         estimate D2E/DX2                !
 ! D51   D(4,5,6,32)            63.8012         estimate D2E/DX2                !
 ! D52   D(16,5,6,7)          -176.0561         estimate D2E/DX2                !
 ! D53   D(16,5,6,17)           52.607          estimate D2E/DX2                !
 ! D54   D(16,5,6,32)          -54.1919         estimate D2E/DX2                !
 ! D55   D(18,5,6,7)            63.6892         estimate D2E/DX2                !
 ! D56   D(18,5,6,17)          -67.6476         estimate D2E/DX2                !
 ! D57   D(18,5,6,32)         -174.4466         estimate D2E/DX2                !
 ! D58   D(4,5,18,23)          -85.4606         estimate D2E/DX2                !
 ! D59   D(6,5,18,23)          154.939          estimate D2E/DX2                !
 ! D60   D(16,5,18,23)          37.0271         estimate D2E/DX2                !
 ! D61   D(5,6,7,2)             34.2094         estimate D2E/DX2                !
 ! D62   D(17,6,7,2)           167.9926         estimate D2E/DX2                !
 ! D63   D(32,6,7,2)           -84.4637         estimate D2E/DX2                !
 ! D64   D(5,6,32,31)          -77.1371         estimate D2E/DX2                !
 ! D65   D(7,6,32,31)           49.5632         estimate D2E/DX2                !
 ! D66   D(17,6,32,31)         164.2047         estimate D2E/DX2                !
 ! D67   D(4,8,27,28)          -70.773          estimate D2E/DX2                !
 ! D68   D(4,8,27,29)           51.7925         estimate D2E/DX2                !
 ! D69   D(4,8,27,30)          170.257          estimate D2E/DX2                !
 ! D70   D(3,9,31,32)           16.506          estimate D2E/DX2                !
 ! D71   D(3,9,31,33)         -164.3417         estimate D2E/DX2                !
 ! D72   D(1,10,19,20)        -179.9891         estimate D2E/DX2                !
 ! D73   D(1,10,19,21)         -60.8924         estimate D2E/DX2                !
 ! D74   D(1,10,19,22)          60.986          estimate D2E/DX2                !
 ! D75   D(5,18,23,24)         -59.6281         estimate D2E/DX2                !
 ! D76   D(5,18,23,25)          62.5953         estimate D2E/DX2                !
 ! D77   D(5,18,23,26)        -178.5507         estimate D2E/DX2                !
 ! D78   D(9,31,32,6)            3.5895         estimate D2E/DX2                !
 ! D79   D(33,31,32,6)        -175.5462         estimate D2E/DX2                !
 ! D80   D(9,31,33,34)          87.8482         estimate D2E/DX2                !
 ! D81   D(9,31,33,35)         -29.5779         estimate D2E/DX2                !
 ! D82   D(9,31,33,36)        -153.6926         estimate D2E/DX2                !
 ! D83   D(32,31,33,34)        -92.9274         estimate D2E/DX2                !
 ! D84   D(32,31,33,35)        149.6465         estimate D2E/DX2                !
 ! D85   D(32,31,33,36)         25.5319         estimate D2E/DX2                !
 --------------------------------------------------------------------------------
 Trust Radius=3.00D-01 FncErr=1.00D-07 GrdErr=1.00D-06
 Number of steps in this run=    216 maximum allowed number of steps=    216.
 GradGradGradGradGradGradGradGradGradGradGradGradGradGradGradGradGradGrad

 Leave Link  103 at Sun Jan  8 09:31:17 2017, MaxMem= 13421772800 cpu:         0.2
 (Enter /share/apps//g09/l202.exe)
                          Input orientation:                          
 ---------------------------------------------------------------------
 Center     Atomic      Atomic             Coordinates (Angstroms)
 Number     Number       Type             X           Y           Z
 ---------------------------------------------------------------------
      1          6           0       -2.007140    0.554140    1.832550
      2          6           0       -0.577620    0.252280    1.388050
      3          6           0        0.305490    1.479850    1.258380
      4          6           0        1.757690    1.108820    0.862630
      5          6           0        1.749950   -0.094730   -0.120180
      6          6           0        0.362560   -0.256210   -0.734070
      7          8           0       -0.670950   -0.443500    0.106170
      8          8           0        2.460470    2.166640    0.247210
      9          8           0       -0.260370    2.432430    0.255330
     10          8           0       -1.895010    1.222800    3.070880
     11          1           0       -2.557980   -0.400440    1.922310
     12          1           0       -2.525880    1.173710    1.074270
     13          1           0       -0.103720   -0.426270    2.117060
     14          1           0        0.247140    2.062160    2.185500
     15          1           0        2.253910    0.781750    1.797110
     16          1           0        2.474650    0.120440   -0.925660
     17          1           0        0.300900   -0.974740   -1.556890
     18          8           0        2.002580   -1.330560    0.513210
     19          6           0       -3.169450    1.482550    3.673920
     20          1           0       -2.967660    1.998540    4.618420
     21          1           0       -3.789900    2.127410    3.028740
     22          1           0       -3.709140    0.542940    3.877780
     23          6           0        3.403470   -1.627040    0.658890
     24          1           0        3.898480   -1.662500   -0.324490
     25          1           0        3.912700   -0.888000    1.298950
     26          1           0        3.455050   -2.611580    1.134270
     27          6           0        2.828500    3.235040    1.138630
     28          1           0        1.953360    3.822340    1.460960
     29          1           0        3.354430    2.840820    2.023010
     30          1           0        3.506880    3.882360    0.573290
     31          6           0       -0.151730    2.220220   -1.024980
     32          8           0        0.148840    1.108780   -1.582460
     33          6           0       -0.423900    3.386890   -1.898730
     34          1           0        0.522750    3.936840   -2.019860
     35          1           0       -1.145550    4.059450   -1.423110
     36          1           0       -0.766410    3.060170   -2.884670
 ---------------------------------------------------------------------
                    Distance matrix (angstroms):
                    1          2          3          4          5
     1  C    0.000000
     2  C    1.527163   0.000000
     3  C    2.556339   1.517770   0.000000
     4  C    3.927131   2.542322   1.550215   0.000000
     5  C    4.283680   2.795131   2.542871   1.553869   0.000000
     6  C    3.586040   2.376109   2.643297   2.521735   1.525709
     7  O    2.400224   1.461519   2.445465   2.979970   2.456345
     8  O    5.007295   3.767795   2.477516   1.411249   2.398668
     9  O    3.011113   2.477248   1.494562   2.488639   3.250989
    10  O    1.411786   2.347199   2.862417   4.269845   5.020407
    11  H    1.105760   2.152511   3.489377   4.693165   4.777393
    12  H    1.108128   2.177891   2.853817   4.289286   4.617182
    13  H    2.159898   1.102936   2.130276   2.719364   2.924253
    14  H    2.735046   2.142854   1.096376   2.222747   3.496680
    15  H    4.267272   2.909507   2.138671   1.107457   2.167532
    16  H    5.280365   3.832361   3.365008   2.165389   1.104666
    17  H    4.376394   3.309086   3.735074   3.509635   2.222228
    18  O    4.622835   3.150898   3.366571   2.476417   1.411482
    19  C    2.367183   3.668290   4.232027   5.685045   6.409641
    20  H    3.281762   4.381439   4.719366   6.101352   7.006565
    21  H    2.661631   4.065307   4.508406   6.041963   6.748596
    22  H    2.660807   4.011191   4.884292   6.268778   6.796468
    23  C    5.950607   4.462353   4.428277   3.199224   2.385173
    24  H    6.666533   5.160877   5.028859   3.697628   2.667551
    25  H    6.116290   4.633697   4.315127   2.970140   2.705678
    26  H    6.351763   4.952628   5.164778   4.098316   3.288700
    27  C    5.572447   4.534393   3.075811   2.396585   3.719575
    28  H    5.148278   4.376814   2.871197   2.785584   4.229044
    29  H    5.831948   4.750235   3.425337   2.626002   3.973043
    30  H    6.562561   5.524894   4.060825   3.291794   4.402834
    31  C    3.792604   3.142751   2.443549   2.905885   3.129544
    32  O    4.076539   3.175731   2.869251   2.926920   2.479970
    33  C    4.945055   4.544484   3.759808   4.192141   4.473314
    34  H    5.716998   5.138156   4.102543   4.222739   4.622592
    35  H    4.860952   4.766520   3.993775   4.728597   5.228648
    36  H    5.483773   5.116251   4.561934   4.921494   4.891612
                    6          7          8          9         10
     6  C    0.000000
     7  O    1.345074   0.000000
     8  O    3.351767   4.079034   0.000000
     9  O    2.931849   2.908917   2.733803   0.000000
    10  O    4.664948   3.614469   5.275808   3.473122   0.000000
    11  H    3.950533   2.619370   5.880536   4.010360   2.096104
    12  H    3.695653   2.644494   5.151080   2.718009   2.094483
    13  H    2.894008   2.089432   4.098121   3.415076   2.614943
    14  H    3.729886   3.383022   2.943928   2.029833   2.465204
    15  H    3.325874   3.593789   2.088726   3.379857   4.362402
    16  H    2.153949   3.358199   2.358550   3.770991   6.023409
    17  H    1.094130   1.998118   4.217439   3.899740   5.573819
    18  O    2.323704   2.846106   3.537065   4.398584   5.315311
    19  C    5.910056   4.762458   6.626184   4.588221   1.433640
    20  H    6.695029   5.621284   6.971394   5.153080   2.036475
    21  H    6.089607   4.987870   6.841460   4.499158   2.100167
    22  H    6.203752   4.942540   7.340404   5.346619   2.098658
    23  C    3.614782   4.278687   3.930743   5.483236   6.481757
    24  H    3.827289   4.748802   4.130015   5.865209   7.308763
    25  H    4.139544   4.757116   3.542027   5.434051   6.428430
    26  H    4.312999   4.772990   4.960590   6.326051   6.861200
    27  C    4.666550   5.181098   1.439289   3.311423   5.485822
    28  H    4.897282   5.188434   2.114638   2.878540   4.915221
    29  H    5.113157   5.537573   2.099321   4.044534   5.592195
    30  H    5.359450   6.032042   2.035927   4.049144   6.518560
    31  C    2.545944   2.940152   2.906016   1.302317   4.561791
    32  O    1.621308   2.435796   3.132155   2.301516   5.083689
    33  C    3.904757   4.330421   3.796532   2.361718   5.616447
    34  H    4.388688   5.013213   3.468137   2.837784   6.255175
    35  H    4.623212   4.779174   4.401827   2.499580   5.366956
    36  H    4.110721   4.607596   4.584738   3.241872   6.333896
                   11         12         13         14         15
    11  H    0.000000
    12  H    1.788337   0.000000
    13  H    2.462110   3.084511   0.000000
    14  H    3.741974   3.116699   2.513975   0.000000
    15  H    4.956565   4.850002   2.668351   2.411933   0.000000
    16  H    5.805998   5.487659   4.025547   4.290850   2.810611
    17  H    4.539587   4.419222   3.736636   4.819869   4.260143
    18  O    4.863064   5.205104   2.797602   4.169973   2.484637
    19  C    2.643423   2.695875   3.932697   3.771529   5.781554
    20  H    3.632073   3.665585   4.509840   4.032132   6.058478
    21  H    3.021893   2.515401   4.576064   4.124682   6.313110
    22  H    2.457437   3.107675   4.127779   4.563331   6.320141
    23  C    6.216081   6.570687   3.983527   5.089514   2.901603
    24  H    6.951747   7.160518   4.848405   5.788387   3.630448
    25  H    6.518895   6.764351   4.124819   4.788084   2.405787
    26  H    6.454973   7.078386   4.290256   5.765381   3.660162
    27  C    6.545612   5.737823   4.791704   3.022417   2.604301
    28  H    6.196523   5.218080   4.765788   2.556243   3.073844
    29  H    6.743330   6.185257   4.758311   3.207486   2.345622
    30  H    7.546175   6.631890   5.829576   4.066725   3.561103
    31  C    4.620002   3.337457   4.108361   3.239022   3.977498
    32  O    4.678465   3.770485   4.013305   3.887945   3.994967
    33  C    5.787790   4.260894   5.547006   4.345819   5.255155
    34  H    6.621450   5.148075   6.045106   4.612531   5.246024
    35  H    5.751297   4.058289   5.808605   4.353254   5.715721
    36  H    6.188102   4.725217   6.132840   5.265922   6.019352
                   16         17         18         19         20
    16  H    0.000000
    17  H    2.514569   0.000000
    18  O    2.097283   2.703264   0.000000
    19  C    7.407249   6.741141   6.682333   0.000000
    20  H    7.992673   7.593308   7.255270   1.095009   0.000000
    21  H    7.675272   6.883748   7.199880   1.103204   1.794371
    22  H    7.841607   6.922385   6.888692   1.102584   1.793631
    23  C    2.535191   3.867960   1.439311   7.871673   8.331507
    24  H    2.359570   3.864506   2.099134   8.708287   9.218430
    25  H    2.834401   4.605263   2.112299   7.836890   8.166416
    26  H    3.559274   4.457606   2.033813   8.191198   8.639659
    27  C    3.753297   5.601503   4.681666   6.743465   6.872652
    28  H    4.435286   5.903390   5.239564   6.051032   6.124723
    29  H    4.107205   6.057906   4.637608   6.865232   6.885812
    30  H    4.179042   6.197370   5.425962   7.742505   7.863302
    31  C    3.364047   3.270408   4.428896   5.632979   6.310829
    32  O    2.611052   2.089218   3.711949   6.227382   6.996796
    33  C    4.474165   4.434637   5.827486   6.497614   7.132424
    34  H    4.424036   4.938337   6.029249   7.216302   7.746401
    35  H    5.372998   5.239579   6.535462   6.059398   6.638337
    36  H    4.794184   4.379800   6.204144   7.160907   7.891066
                   21         22         23         24         25
    21  H    0.000000
    22  H    1.799427   0.000000
    23  C    8.453204   8.103042   0.000000
    24  H    9.204279   8.966545   1.101512   0.000000
    25  H    8.450735   8.172539   1.102348   1.798780   0.000000
    26  H    8.862073   8.294785   1.094516   1.795930   1.790891
    27  C    6.971555   7.582287   4.919407   5.222210   4.266222
    28  H    6.189972   6.975628   5.695777   6.087265   5.104171
    29  H    7.249958   7.656007   4.671724   5.107508   3.839274
    30  H    7.896333   8.610594   5.511035   5.630704   4.842273
    31  C    5.447710   6.285339   5.502388   5.654238   5.619722
    32  O    6.149345   6.709576   4.806348   4.829315   5.143568
    33  C    6.098869   7.228342   6.806591   6.830632   6.877931
    34  H    6.881958   8.013090   6.814030   6.754439   6.766487
    35  H    5.526693   6.858372   7.573934   7.706485   7.581079
    36  H    6.706709   7.792743   7.205182   7.114726   7.415173
                   26         27         28         29         30
    26  H    0.000000
    27  C    5.880098   0.000000
    28  H    6.614917   1.102129   0.000000
    29  H    5.525274   1.101880   1.800633   0.000000
    30  H    6.518331   1.094912   1.790247   1.791573   0.000000
    31  C    6.404492   3.820057   3.630164   4.687061   4.324651
    32  O    5.670337   4.371028   4.458935   5.125932   4.859675
    33  C    7.760605   4.452721   4.138659   5.473026   4.669840
    34  H    7.837648   3.973042   3.765085   5.056132   3.953786
    35  H    8.497550   4.799504   4.239967   5.797467   5.065775
    36  H    8.132733   5.398231   5.182910   6.412079   5.558281
                   31         32         33         34         35
    31  C    0.000000
    32  O    1.279228   0.000000
    33  C    1.482779   2.370199   0.000000
    34  H    2.095589   2.886009   1.101483   0.000000
    35  H    2.128134   3.226033   1.095139   1.776054   0.000000
    36  H    2.131149   2.518205   1.093680   1.782801   1.810653
                   36
    36  H    0.000000
 Stoichiometry    C11H19O6(1+)
 Framework group  C1[X(C11H19O6)]
 Deg. of freedom   102
 Full point group                 C1      NOp   1
 Largest Abelian subgroup         C1      NOp   1
 Largest concise Abelian subgroup C1      NOp   1
                         Standard orientation:                         
 ---------------------------------------------------------------------
 Center     Atomic      Atomic             Coordinates (Angstroms)
 Number     Number       Type             X           Y           Z
 ---------------------------------------------------------------------
      1          6           0       -2.534108   -0.796289   -0.477284
      2          6           0       -1.031621   -0.962031   -0.259826
      3          6           0       -0.421624    0.065987    0.675433
      4          6           0        1.090637   -0.185953    0.905132
      5          6           0        1.747969   -0.705200   -0.403609
      6          6           0        0.848991   -0.393848   -1.596374
      7          8           0       -0.402455   -0.886519   -1.576824
      8          8           0        1.796034    0.964611    1.317736
      9          8           0       -0.625299    1.448032    0.144225
     10          8           0       -3.122139   -0.874311    0.803838
     11          1           0       -2.885012   -1.603037   -1.147156
     12          1           0       -2.749414    0.171544   -0.972147
     13          1           0       -0.831479   -1.960762    0.163195
     14          1           0       -1.000391    0.090843    1.606267
     15          1           0        1.153601   -0.993019    1.660871
     16          1           0        2.709523   -0.177018   -0.532934
     17          1           0        1.299752   -0.576923   -2.576383
     18          8           0        1.898368   -2.108384   -0.430708
     19          6           0       -4.554568   -0.840895    0.755317
     20          1           0       -4.902853   -0.906458    1.791389
     21          1           0       -4.914735    0.100065    0.305946
     22          1           0       -4.950632   -1.694654    0.180931
     23          6           0        3.104914   -2.570408    0.203639
     24          1           0        3.992415   -2.142235   -0.288640
     25          1           0        3.124026   -2.318788    1.276716
     26          1           0        3.107705   -3.658878    0.088783
     27          6           0        1.518460    1.381131    2.667187
     28          1           0        0.503980    1.799754    2.768537
     29          1           0        1.642191    0.539766    3.367855
     30          1           0        2.252807    2.158470    2.902367
     31          6           0        0.092960    1.915422   -0.836428
     32          8           0        0.807858    1.226270   -1.642912
     33          6           0        0.047837    3.385199   -1.027091
     34          1           0        0.829980    3.825300   -0.388479
     35          1           0       -0.918256    3.782887   -0.698703
     36          1           0        0.258780    3.646869   -2.067845
 ---------------------------------------------------------------------
 Rotational constants (GHZ):      0.5522826      0.3837906      0.3263114
 Leave Link  202 at Sun Jan  8 09:31:17 2017, MaxMem= 13421772800 cpu:         0.7
 (Enter /share/apps//g09/l301.exe)
 Standard basis: 6-311+G(d,p) (5D, 7F)
 Ernie: Thresh=  0.10000D-02 Tol=  0.10000D-05 Strict=F.
 There are   505 symmetry adapted cartesian basis functions of A   symmetry.
 There are   488 symmetry adapted basis functions of A   symmetry.
   488 basis functions,   764 primitive gaussians,   505 cartesian basis functions
    66 alpha electrons       66 beta electrons
       nuclear repulsion energy      1437.4496366938 Hartrees.
 IExCor= 1009 DFT=T Ex+Corr=PBE1PBE ExCW=0 ScaHFX=  0.250000
 ScaDFX=  0.750000  0.750000  1.000000  1.000000 ScalE2=  1.000000  1.000000
 IRadAn=      0 IRanWt=     -1 IRanGd=            0 ICorTp=0 IEmpDi=131
 NAtoms=   36 NActive=   36 NUniq=   36 SFac= 1.00D+00 NAtFMM=   60 NAOKFM=F Big=F
 Integral buffers will be    131072 words long.
 Raffenetti 2 integral format.
 Two-electron integral symmetry is turned on.
 R6Disp:  Grimme-D3 Dispersion energy=       -0.0245871142 Hartrees.
 Nuclear repulsion after empirical dispersion term =     1437.4250495797 Hartrees.
 Leave Link  301 at Sun Jan  8 09:31:17 2017, MaxMem= 13421772800 cpu:         1.4
 (Enter /share/apps//g09/l302.exe)
 NPDir=0 NMtPBC=     1 NCelOv=     1 NCel=       1 NClECP=     1 NCelD=      1
         NCelK=      1 NCelE2=     1 NClLst=     1 CellRange=     0.0.
 One-electron integrals computed using PRISM.
 NBasis=   488 RedAO= T EigKep=  1.72D-06  NBF=   488
 NBsUse=   488 1.00D-06 EigRej= -1.00D+00 NBFU=   488
 Precomputing XC quadrature grid using
 IXCGrd= 4 IRadAn=           0 IRanWt=          -1 IRanGd=           0 AccXCQ= 0.00D+00.
 Generated NRdTot=       0 NPtTot=           0 NUsed=           0 NTot=          32
 NSgBfM=   503   504   504   504   504 MxSgAt=    36 MxSgA2=    36.
 Leave Link  302 at Sun Jan  8 09:31:18 2017, MaxMem= 13421772800 cpu:        12.8
 (Enter /share/apps//g09/l303.exe)
 DipDrv:  MaxL=1.
 Leave Link  303 at Sun Jan  8 09:31:19 2017, MaxMem= 13421772800 cpu:         6.8
 (Enter /share/apps//g09/l401.exe)
 ExpMin= 4.38D-02 ExpMax= 8.59D+03 ExpMxC= 1.30D+03 IAcc=2 IRadAn=         4 AccDes= 0.00D+00
 Harris functional with IExCor= 1009 and IRadAn=       4 diagonalized for initial guess.
 HarFok:  IExCor= 1009 AccDes= 0.00D+00 IRadAn=         4 IDoV= 1 UseB2=F ITyADJ=14
 ICtDFT=  3500011 ScaDFX=  1.000000  1.000000  1.000000  1.000000
 FoFCou: FMM=F IPFlag=           0 FMFlag=      100000 FMFlg1=           0
         NFxFlg=           0 DoJE=T BraDBF=F KetDBF=T FulRan=T
         wScrn=  0.000000 ICntrl=     500 IOpCl=  0 I1Cent=   200000004 NGrid=           0
         NMat0=    1 NMatS0=      1 NMatT0=    0 NMatD0=    1 NMtDS0=    0 NMtDT0=    0
 Petite list used in FoFCou.
 Harris En= -881.104153827811    
 JPrj=0 DoOrth=F DoCkMO=F.
 Leave Link  401 at Sun Jan  8 09:31:20 2017, MaxMem= 13421772800 cpu:        22.7
 (Enter /share/apps//g09/l502.exe)
 Closed shell SCF:
 Using DIIS extrapolation, IDIIS=  1040.
 Integral symmetry usage will be decided dynamically.
 Keep R1 ints in memory in canonical form, NReq=7183787934.
 IVT=      797493 IEndB=      797493 NGot= 13421772800 MDV=  6302761722
 LenX=  6302761722 LenY=  6302506192
 Requested convergence on RMS density matrix=1.00D-08 within 128 cycles.
 Requested convergence on MAX density matrix=1.00D-06.
 Requested convergence on             energy=1.00D-06.
 No special actions if energy rises.
 FoFCou: FMM=F IPFlag=           0 FMFlag=           0 FMFlg1=           0
         NFxFlg=           0 DoJE=F BraDBF=F KetDBF=F FulRan=T
         wScrn=  0.000000 ICntrl=     600 IOpCl=  0 I1Cent=           0 NGrid=           0
         NMat0=    1 NMatS0= 119316 NMatT0=    0 NMatD0=    1 NMtDS0=    0 NMtDT0=    0
 Symmetry not used in FoFCou.

 Cycle   1  Pass 1  IDiag  1:
 E= -880.656405266513    
 DIIS: error= 1.72D-02 at cycle   1 NSaved=   1.
 NSaved= 1 IEnMin= 1 EnMin= -880.656405266513     IErMin= 1 ErrMin= 1.72D-02
 ErrMax= 1.72D-02  0.00D+00 EMaxC= 1.00D-01 BMatC= 3.68D-01 BMatP= 3.68D-01
 IDIUse=3 WtCom= 8.28D-01 WtEn= 1.72D-01
 Coeff-Com:  0.100D+01
 Coeff-En:   0.100D+01
 Coeff:      0.100D+01
 Gap=     0.105 Goal=   None    Shift=    0.000
 GapD=    0.105 DampG=1.000 DampE=0.500 DampFc=0.5000 IDamp=-1.
 Damping current iteration by 5.00D-01
 RMSDP=1.42D-02 MaxDP=2.13D+00              OVMax= 1.20D-01

 Cycle   2  Pass 1  IDiag  1:
 E= -880.781552263802     Delta-E=       -0.125146997289 Rises=F Damp=T
 DIIS: error= 3.37D-03 at cycle   2 NSaved=   2.
 NSaved= 2 IEnMin= 2 EnMin= -880.781552263802     IErMin= 2 ErrMin= 3.37D-03
 ErrMax= 3.37D-03  0.00D+00 EMaxC= 1.00D-01 BMatC= 2.82D-02 BMatP= 3.68D-01
 IDIUse=3 WtCom= 9.66D-01 WtEn= 3.37D-02
 Coeff-Com: -0.181D-01 0.102D+01
 Coeff-En:   0.335D-01 0.967D+00
 Coeff:     -0.164D-01 0.102D+01
 Gap=     0.227 Goal=   None    Shift=    0.000
 RMSDP=6.46D-03 MaxDP=1.17D+00 DE=-1.25D-01 OVMax= 8.08D-02

 Cycle   3  Pass 1  IDiag  1:
 E= -880.914739743458     Delta-E=       -0.133187479656 Rises=F Damp=F
 DIIS: error= 3.60D-03 at cycle   3 NSaved=   3.
 NSaved= 3 IEnMin= 3 EnMin= -880.914739743458     IErMin= 2 ErrMin= 3.37D-03
 ErrMax= 3.60D-03  0.00D+00 EMaxC= 1.00D-01 BMatC= 1.79D-02 BMatP= 2.82D-02
 IDIUse=3 WtCom= 9.64D-01 WtEn= 3.60D-02
 Coeff-Com: -0.938D-01 0.462D+00 0.632D+00
 Coeff-En:   0.000D+00 0.000D+00 0.100D+01
 Coeff:     -0.904D-01 0.445D+00 0.645D+00
 Gap=     0.194 Goal=   None    Shift=    0.000
 RMSDP=1.30D-03 MaxDP=1.67D-01 DE=-1.33D-01 OVMax= 1.90D-02

 Cycle   4  Pass 1  IDiag  1:
 E= -880.925883793461     Delta-E=       -0.011144050003 Rises=F Damp=F
 DIIS: error= 1.67D-03 at cycle   4 NSaved=   4.
 NSaved= 4 IEnMin= 4 EnMin= -880.925883793461     IErMin= 4 ErrMin= 1.67D-03
 ErrMax= 1.67D-03  0.00D+00 EMaxC= 1.00D-01 BMatC= 3.21D-03 BMatP= 1.79D-02
 IDIUse=3 WtCom= 9.83D-01 WtEn= 1.67D-02
 Coeff-Com: -0.464D-01 0.148D+00 0.353D+00 0.545D+00
 Coeff-En:   0.000D+00 0.000D+00 0.106D+00 0.894D+00
 Coeff:     -0.456D-01 0.145D+00 0.349D+00 0.551D+00
 Gap=     0.197 Goal=   None    Shift=    0.000
 RMSDP=8.86D-04 MaxDP=1.64D-01 DE=-1.11D-02 OVMax= 5.99D-03

 Cycle   5  Pass 1  IDiag  1:
 E= -880.928252051041     Delta-E=       -0.002368257580 Rises=F Damp=F
 DIIS: error= 2.74D-04 at cycle   5 NSaved=   5.
 NSaved= 5 IEnMin= 5 EnMin= -880.928252051041     IErMin= 5 ErrMin= 2.74D-04
 ErrMax= 2.74D-04  0.00D+00 EMaxC= 1.00D-01 BMatC= 9.35D-05 BMatP= 3.21D-03
 IDIUse=3 WtCom= 9.97D-01 WtEn= 2.74D-03
 Coeff-Com: -0.121D-01 0.258D-01 0.959D-01 0.221D+00 0.669D+00
 Coeff-En:   0.000D+00 0.000D+00 0.000D+00 0.000D+00 0.100D+01
 Coeff:     -0.121D-01 0.257D-01 0.957D-01 0.221D+00 0.670D+00
 Gap=     0.199 Goal=   None    Shift=    0.000
 RMSDP=1.14D-04 MaxDP=1.59D-02 DE=-2.37D-03 OVMax= 1.30D-03

 Cycle   6  Pass 1  IDiag  1:
 E= -880.928315144645     Delta-E=       -0.000063093605 Rises=F Damp=F
 DIIS: error= 1.01D-04 at cycle   6 NSaved=   6.
 NSaved= 6 IEnMin= 6 EnMin= -880.928315144645     IErMin= 6 ErrMin= 1.01D-04
 ErrMax= 1.01D-04  0.00D+00 EMaxC= 1.00D-01 BMatC= 8.28D-06 BMatP= 9.35D-05
 IDIUse=3 WtCom= 9.99D-01 WtEn= 1.01D-03
 Coeff-Com: -0.447D-02 0.770D-02 0.359D-01 0.938D-01 0.355D+00 0.512D+00
 Coeff-En:   0.000D+00 0.000D+00 0.000D+00 0.000D+00 0.000D+00 0.100D+01
 Coeff:     -0.447D-02 0.769D-02 0.359D-01 0.938D-01 0.355D+00 0.512D+00
 Gap=     0.199 Goal=   None    Shift=    0.000
 RMSDP=6.98D-05 MaxDP=1.11D-02 DE=-6.31D-05 OVMax= 4.17D-04

 Cycle   7  Pass 1  IDiag  1:
 E= -880.928322019943     Delta-E=       -0.000006875297 Rises=F Damp=F
 DIIS: error= 1.63D-05 at cycle   7 NSaved=   7.
 NSaved= 7 IEnMin= 7 EnMin= -880.928322019943     IErMin= 7 ErrMin= 1.63D-05
 ErrMax= 1.63D-05  0.00D+00 EMaxC= 1.00D-01 BMatC= 3.06D-07 BMatP= 8.28D-06
 IDIUse=1 WtCom= 1.00D+00 WtEn= 0.00D+00
 Coeff-Com: -0.869D-03 0.116D-02 0.712D-02 0.220D-01 0.984D-01 0.200D+00
 Coeff-Com:  0.672D+00
 Coeff:     -0.869D-03 0.116D-02 0.712D-02 0.220D-01 0.984D-01 0.200D+00
 Coeff:      0.672D+00
 Gap=     0.199 Goal=   None    Shift=    0.000
 RMSDP=8.68D-06 MaxDP=1.54D-03 DE=-6.88D-06 OVMax= 1.01D-04

 Cycle   8  Pass 1  IDiag  1:
 E= -880.928322175916     Delta-E=       -0.000000155973 Rises=F Damp=F
 DIIS: error= 9.37D-06 at cycle   8 NSaved=   8.
 NSaved= 8 IEnMin= 8 EnMin= -880.928322175916     IErMin= 8 ErrMin= 9.37D-06
 ErrMax= 9.37D-06  0.00D+00 EMaxC= 1.00D-01 BMatC= 1.06D-07 BMatP= 3.06D-07
 IDIUse=1 WtCom= 1.00D+00 WtEn= 0.00D+00
 Coeff-Com:  0.619D-04-0.305D-03-0.644D-03 0.346D-03 0.797D-02 0.391D-01
 Coeff-Com:  0.392D+00 0.562D+00
 Coeff:      0.619D-04-0.305D-03-0.644D-03 0.346D-03 0.797D-02 0.391D-01
 Coeff:      0.392D+00 0.562D+00
 Gap=     0.199 Goal=   None    Shift=    0.000
 RMSDP=6.76D-06 MaxDP=9.86D-04 DE=-1.56D-07 OVMax= 4.84D-05

 Cycle   9  Pass 1  IDiag  1:
 E= -880.928322253073     Delta-E=       -0.000000077158 Rises=F Damp=F
 DIIS: error= 1.56D-06 at cycle   9 NSaved=   9.
 NSaved= 9 IEnMin= 9 EnMin= -880.928322253073     IErMin= 9 ErrMin= 1.56D-06
 ErrMax= 1.56D-06  0.00D+00 EMaxC= 1.00D-01 BMatC= 2.62D-09 BMatP= 1.06D-07
 IDIUse=1 WtCom= 1.00D+00 WtEn= 0.00D+00
 Coeff-Com:  0.727D-04-0.177D-03-0.718D-03-0.120D-02-0.352D-02 0.235D-02
 Coeff-Com:  0.106D+00 0.206D+00 0.692D+00
 Coeff:      0.727D-04-0.177D-03-0.718D-03-0.120D-02-0.352D-02 0.235D-02
 Coeff:      0.106D+00 0.206D+00 0.692D+00
 Gap=     0.199 Goal=   None    Shift=    0.000
 RMSDP=1.27D-06 MaxDP=2.01D-04 DE=-7.72D-08 OVMax= 9.85D-06

 Cycle  10  Pass 1  IDiag  1:
 E= -880.928322254897     Delta-E=       -0.000000001824 Rises=F Damp=F
 DIIS: error= 6.41D-07 at cycle  10 NSaved=  10.
 NSaved=10 IEnMin=10 EnMin= -880.928322254897     IErMin=10 ErrMin= 6.41D-07
 ErrMax= 6.41D-07  0.00D+00 EMaxC= 1.00D-01 BMatC= 5.67D-10 BMatP= 2.62D-09
 IDIUse=1 WtCom= 1.00D+00 WtEn= 0.00D+00
 Coeff-Com:  0.354D-04-0.747D-04-0.359D-03-0.702D-03-0.264D-02-0.169D-02
 Coeff-Com:  0.280D-01 0.673D-01 0.378D+00 0.532D+00
 Coeff:      0.354D-04-0.747D-04-0.359D-03-0.702D-03-0.264D-02-0.169D-02
 Coeff:      0.280D-01 0.673D-01 0.378D+00 0.532D+00
 Gap=     0.199 Goal=   None    Shift=    0.000
 RMSDP=2.99D-07 MaxDP=3.71D-05 DE=-1.82D-09 OVMax= 4.51D-06

 Cycle  11  Pass 1  IDiag  1:
 E= -880.928322255326     Delta-E=       -0.000000000429 Rises=F Damp=F
 DIIS: error= 1.56D-07 at cycle  11 NSaved=  11.
 NSaved=11 IEnMin=11 EnMin= -880.928322255326     IErMin=11 ErrMin= 1.56D-07
 ErrMax= 1.56D-07  0.00D+00 EMaxC= 1.00D-01 BMatC= 3.07D-11 BMatP= 5.67D-10
 IDIUse=1 WtCom= 1.00D+00 WtEn= 0.00D+00
 Coeff-Com:  0.633D-05-0.115D-04-0.754D-04-0.165D-03-0.718D-03-0.897D-03
 Coeff-Com:  0.427D-03 0.531D-02 0.868D-01 0.231D+00 0.678D+00
 Coeff:      0.633D-05-0.115D-04-0.754D-04-0.165D-03-0.718D-03-0.897D-03
 Coeff:      0.427D-03 0.531D-02 0.868D-01 0.231D+00 0.678D+00
 Gap=     0.199 Goal=   None    Shift=    0.000
 RMSDP=1.09D-07 MaxDP=1.41D-05 DE=-4.29D-10 OVMax= 1.18D-06

 Cycle  12  Pass 1  IDiag  1:
 E= -880.928322255333     Delta-E=       -0.000000000006 Rises=F Damp=F
 DIIS: error= 8.01D-08 at cycle  12 NSaved=  12.
 NSaved=12 IEnMin=12 EnMin= -880.928322255333     IErMin=12 ErrMin= 8.01D-08
 ErrMax= 8.01D-08  0.00D+00 EMaxC= 1.00D-01 BMatC= 6.22D-12 BMatP= 3.07D-11
 IDIUse=1 WtCom= 1.00D+00 WtEn= 0.00D+00
 Coeff-Com:  0.424D-06 0.192D-06-0.116D-04-0.314D-04-0.166D-03-0.338D-03
 Coeff-Com: -0.211D-02-0.256D-02 0.170D-01 0.847D-01 0.386D+00 0.517D+00
 Coeff:      0.424D-06 0.192D-06-0.116D-04-0.314D-04-0.166D-03-0.338D-03
 Coeff:     -0.211D-02-0.256D-02 0.170D-01 0.847D-01 0.386D+00 0.517D+00
 Gap=     0.199 Goal=   None    Shift=    0.000
 RMSDP=2.63D-08 MaxDP=3.16D-06 DE=-6.37D-12 OVMax= 4.82D-07

 Cycle  13  Pass 1  IDiag  1:
 E= -880.928322255354     Delta-E=       -0.000000000022 Rises=F Damp=F
 DIIS: error= 2.89D-08 at cycle  13 NSaved=  13.
 NSaved=13 IEnMin=13 EnMin= -880.928322255354     IErMin=13 ErrMin= 2.89D-08
 ErrMax= 2.89D-08  0.00D+00 EMaxC= 1.00D-01 BMatC= 5.67D-13 BMatP= 6.22D-12
 IDIUse=1 WtCom= 1.00D+00 WtEn= 0.00D+00
 Coeff-Com: -0.321D-06 0.106D-05 0.994D-06-0.134D-05-0.147D-04-0.808D-04
 Coeff-Com: -0.112D-02-0.177D-02-0.944D-03 0.176D-01 0.128D+00 0.277D+00
 Coeff-Com:  0.582D+00
 Coeff:     -0.321D-06 0.106D-05 0.994D-06-0.134D-05-0.147D-04-0.808D-04
 Coeff:     -0.112D-02-0.177D-02-0.944D-03 0.176D-01 0.128D+00 0.277D+00
 Coeff:      0.582D+00
 Gap=     0.199 Goal=   None    Shift=    0.000
 RMSDP=1.95D-08 MaxDP=3.49D-06 DE=-2.18D-11 OVMax= 2.20D-07

 Cycle  14  Pass 1  IDiag  1:
 E= -880.928322255332     Delta-E=        0.000000000022 Rises=F Damp=F
 DIIS: error= 1.55D-08 at cycle  14 NSaved=  14.
 NSaved=14 IEnMin=13 EnMin= -880.928322255354     IErMin=14 ErrMin= 1.55D-08
 ErrMax= 1.55D-08  0.00D+00 EMaxC= 1.00D-01 BMatC= 1.45D-13 BMatP= 5.67D-13
 IDIUse=1 WtCom= 1.00D+00 WtEn= 0.00D+00
 Coeff-Com: -0.286D-06 0.704D-06 0.238D-05 0.360D-05 0.142D-04-0.790D-05
 Coeff-Com: -0.476D-03-0.819D-03-0.298D-02-0.224D-03 0.304D-01 0.107D+00
 Coeff-Com:  0.381D+00 0.486D+00
 Coeff:     -0.286D-06 0.704D-06 0.238D-05 0.360D-05 0.142D-04-0.790D-05
 Coeff:     -0.476D-03-0.819D-03-0.298D-02-0.224D-03 0.304D-01 0.107D+00
 Coeff:      0.381D+00 0.486D+00
 Gap=     0.199 Goal=   None    Shift=    0.000
 RMSDP=7.98D-09 MaxDP=1.52D-06 DE= 2.23D-11 OVMax= 6.80D-08

 Cycle  15  Pass 1  IDiag  1:
 E= -880.928322255329     Delta-E=        0.000000000003 Rises=F Damp=F
 DIIS: error= 1.76D-09 at cycle  15 NSaved=  15.
 NSaved=15 IEnMin=13 EnMin= -880.928322255354     IErMin=15 ErrMin= 1.76D-09
 ErrMax= 1.76D-09  0.00D+00 EMaxC= 1.00D-01 BMatC= 3.86D-15 BMatP= 1.45D-13
 IDIUse=1 WtCom= 1.00D+00 WtEn= 0.00D+00
 Coeff-Com: -0.773D-07 0.175D-06 0.845D-06 0.146D-05 0.694D-05 0.414D-05
 Coeff-Com: -0.826D-04-0.150D-03-0.114D-02-0.179D-02 0.509D-04 0.180D-01
 Coeff-Com:  0.104D+00 0.200D+00 0.681D+00
 Coeff:     -0.773D-07 0.175D-06 0.845D-06 0.146D-05 0.694D-05 0.414D-05
 Coeff:     -0.826D-04-0.150D-03-0.114D-02-0.179D-02 0.509D-04 0.180D-01
 Coeff:      0.104D+00 0.200D+00 0.681D+00
 Gap=     0.199 Goal=   None    Shift=    0.000
 RMSDP=1.47D-08 MaxDP=3.13D-06 DE= 3.18D-12 OVMax= 1.51D-08

 Cycle  16  Pass 1  IDiag  1:
 E= -880.928322255320     Delta-E=        0.000000000009 Rises=F Damp=F
 DIIS: error= 7.23D-10 at cycle  16 NSaved=  16.
 NSaved=16 IEnMin=13 EnMin= -880.928322255354     IErMin=16 ErrMin= 7.23D-10
 ErrMax= 7.23D-10  0.00D+00 EMaxC= 1.00D-01 BMatC= 3.75D-16 BMatP= 3.86D-15
 IDIUse=1 WtCom= 1.00D+00 WtEn= 0.00D+00
 Large coefficients: NSaved= 16 BigCof=    0.00 CofMax=   10.00 Det=-3.02D-15
 Inversion failed.  Reducing to 15 matrices.
 Coeff-Com: -0.108D-08 0.919D-07 0.134D-06 0.111D-05 0.150D-05 0.553D-06
 Coeff-Com:  0.302D-05-0.238D-03-0.654D-03-0.207D-02-0.183D-04 0.173D-01
 Coeff-Com:  0.488D-01 0.302D+00 0.635D+00
 Coeff:     -0.108D-08 0.919D-07 0.134D-06 0.111D-05 0.150D-05 0.553D-06
 Coeff:      0.302D-05-0.238D-03-0.654D-03-0.207D-02-0.183D-04 0.173D-01
 Coeff:      0.488D-01 0.302D+00 0.635D+00
 Gap=     0.199 Goal=   None    Shift=    0.000
 RMSDP=8.86D-09 MaxDP=1.73D-06 DE= 8.64D-12 OVMax= 3.89D-09

 Cycle  17  Pass 1  IDiag  1:
 E= -880.928322255332     Delta-E=       -0.000000000011 Rises=F Damp=F
 DIIS: error= 2.90D-10 at cycle  17 NSaved=  16.
 NSaved=16 IEnMin=12 EnMin= -880.928322255354     IErMin=16 ErrMin= 2.90D-10
 ErrMax= 2.90D-10  0.00D+00 EMaxC= 1.00D-01 BMatC= 4.95D-17 BMatP= 3.75D-16
 IDIUse=1 WtCom= 1.00D+00 WtEn= 0.00D+00
 Large coefficients: NSaved= 16 BigCof=    0.00 CofMax=   10.00 Det=-4.31D-16
 Inversion failed.  Reducing to 15 matrices.
 Coeff-Com:  0.285D-07 0.562D-07 0.282D-06 0.746D-06 0.541D-05 0.931D-05
 Coeff-Com: -0.374D-04-0.180D-03-0.967D-03-0.144D-02-0.761D-03 0.434D-02
 Coeff-Com:  0.753D-01 0.308D+00 0.616D+00
 Coeff:      0.285D-07 0.562D-07 0.282D-06 0.746D-06 0.541D-05 0.931D-05
 Coeff:     -0.374D-04-0.180D-03-0.967D-03-0.144D-02-0.761D-03 0.434D-02
 Coeff:      0.753D-01 0.308D+00 0.616D+00
 Gap=     0.199 Goal=   None    Shift=    0.000
 RMSDP=8.09D-09 MaxDP=1.49D-06 DE=-1.14D-11 OVMax= 1.91D-09

 Cycle  18  Pass 1  IDiag  1:
 E= -880.928322255329     Delta-E=        0.000000000003 Rises=F Damp=F
 DIIS: error= 2.69D-10 at cycle  18 NSaved=  16.
 NSaved=16 IEnMin=11 EnMin= -880.928322255354     IErMin=16 ErrMin= 2.69D-10
 ErrMax= 2.69D-10  0.00D+00 EMaxC= 1.00D-01 BMatC= 1.16D-17 BMatP= 4.95D-17
 IDIUse=1 WtCom= 1.00D+00 WtEn= 0.00D+00
 Large coefficients: NSaved= 16 BigCof=    0.00 CofMax=   10.00 Det=-6.48D-17
 Inversion failed.  Reducing to 15 matrices.
 Coeff-Com:  0.329D-08-0.383D-07 0.203D-06 0.363D-05 0.657D-05 0.162D-04
 Coeff-Com: -0.825D-05-0.287D-03-0.884D-03-0.275D-02-0.327D-02 0.138D-01
 Coeff-Com:  0.131D+00 0.378D+00 0.484D+00
 Coeff:      0.329D-08-0.383D-07 0.203D-06 0.363D-05 0.657D-05 0.162D-04
 Coeff:     -0.825D-05-0.287D-03-0.884D-03-0.275D-02-0.327D-02 0.138D-01
 Coeff:      0.131D+00 0.378D+00 0.484D+00
 Gap=     0.199 Goal=   None    Shift=    0.000
 RMSDP=1.31D-08 MaxDP=1.90D-06 DE= 2.73D-12 OVMax= 4.78D-10

 Cycle  19  Pass 1  IDiag  1:
 E= -880.928322255327     Delta-E=        0.000000000002 Rises=F Damp=F
 DIIS: error= 1.25D-10 at cycle  19 NSaved=  16.
 NSaved=16 IEnMin=10 EnMin= -880.928322255354     IErMin=16 ErrMin= 1.25D-10
 ErrMax= 1.25D-10  0.00D+00 EMaxC= 1.00D-01 BMatC= 2.08D-18 BMatP= 1.16D-17
 IDIUse=1 WtCom= 1.00D+00 WtEn= 0.00D+00
 Large coefficients: NSaved= 16 BigCof=    0.00 CofMax=   10.00 Det=-1.05D-17
 Inversion failed.  Reducing to 15 matrices.
 Coeff-Com: -0.239D-07 0.944D-07 0.176D-05 0.320D-05 0.499D-05-0.147D-04
 Coeff-Com: -0.187D-03-0.514D-03-0.151D-02-0.166D-02 0.789D-02 0.728D-01
 Coeff-Com:  0.214D+00 0.208D+00 0.502D+00
 Coeff:     -0.239D-07 0.944D-07 0.176D-05 0.320D-05 0.499D-05-0.147D-04
 Coeff:     -0.187D-03-0.514D-03-0.151D-02-0.166D-02 0.789D-02 0.728D-01
 Coeff:      0.214D+00 0.208D+00 0.502D+00
 Gap=     0.199 Goal=   None    Shift=    0.000
 RMSDP=7.54D-09 MaxDP=1.39D-06 DE= 1.82D-12 OVMax= 2.53D-10

 Cycle  20  Pass 1  IDiag  1:
 E= -880.928322255333     Delta-E=       -0.000000000005 Rises=F Damp=F
 DIIS: error= 1.11D-10 at cycle  20 NSaved=  16.
 NSaved=16 IEnMin= 9 EnMin= -880.928322255354     IErMin=16 ErrMin= 1.11D-10
 ErrMax= 1.11D-10  0.00D+00 EMaxC= 1.00D-01 BMatC= 1.58D-18 BMatP= 2.08D-18
 IDIUse=1 WtCom= 1.00D+00 WtEn= 0.00D+00
 Large coefficients: NSaved= 16 BigCof=    0.00 CofMax=   10.00 Det=-2.68D-18
 Inversion failed.  Reducing to 15 matrices.
 Coeff-Com:  0.105D-06 0.132D-05 0.222D-05 0.147D-05-0.142D-04-0.132D-03
 Coeff-Com: -0.335D-03-0.934D-03-0.988D-03 0.556D-02 0.496D-01 0.151D+00
 Coeff-Com:  0.167D+00 0.280D+00 0.349D+00
 Coeff:      0.105D-06 0.132D-05 0.222D-05 0.147D-05-0.142D-04-0.132D-03
 Coeff:     -0.335D-03-0.934D-03-0.988D-03 0.556D-02 0.496D-01 0.151D+00
 Coeff:      0.167D+00 0.280D+00 0.349D+00
 Gap=     0.199 Goal=   None    Shift=    0.000
 RMSDP=3.58D-09 MaxDP=5.12D-07 DE=-5.46D-12 OVMax= 1.35D-10

 SCF Done:  E(RPBE1PBE) =  -880.928322255     A.U. after   20 cycles
            NFock= 20  Conv=0.36D-08     -V/T= 2.0043
 KE= 8.771311597691D+02 PE=-4.917601544638D+03 EE= 1.722117013034D+03
 Leave Link  502 at Sun Jan  8 09:35:51 2017, MaxMem= 13421772800 cpu:      1174.2
 (Enter /share/apps//g09/l601.exe)
 Copying SCF densities to generalized density rwf, IOpCl= 0 IROHF=0.

 **********************************************************************

            Population analysis using the SCF density.

 **********************************************************************

 Orbital symmetries:
       Occupied  (A) (A) (A) (A) (A) (A) (A) (A) (A) (A) (A) (A)
                 (A) (A) (A) (A) (A) (A) (A) (A) (A) (A) (A) (A)
                 (A) (A) (A) (A) (A) (A) (A) (A) (A) (A) (A) (A)
                 (A) (A) (A) (A) (A) (A) (A) (A) (A) (A) (A) (A)
                 (A) (A) (A) (A) (A) (A) (A) (A) (A) (A) (A) (A)
                 (A) (A) (A) (A) (A) (A)
       Virtual   (A) (A) (A) (A) (A) (A) (A) (A) (A) (A) (A) (A)
                 (A) (A) (A) (A) (A) (A) (A) (A) (A) (A) (A) (A)
                 (A) (A) (A) (A) (A) (A) (A) (A) (A) (A) (A) (A)
                 (A) (A) (A) (A) (A) (A) (A) (A) (A) (A) (A) (A)
                 (A) (A) (A) (A) (A) (A) (A) (A) (A) (A) (A) (A)
                 (A) (A) (A) (A) (A) (A) (A) (A) (A) (A) (A) (A)
                 (A) (A) (A) (A) (A) (A) (A) (A) (A) (A) (A) (A)
                 (A) (A) (A) (A) (A) (A) (A) (A) (A) (A) (A) (A)
                 (A) (A) (A) (A) (A) (A) (A) (A) (A) (A) (A) (A)
                 (A) (A) (A) (A) (A) (A) (A) (A) (A) (A) (A) (A)
                 (A) (A) (A) (A) (A) (A) (A) (A) (A) (A) (A) (A)
                 (A) (A) (A) (A) (A) (A) (A) (A) (A) (A) (A) (A)
                 (A) (A) (A) (A) (A) (A) (A) (A) (A) (A) (A) (A)
                 (A) (A) (A) (A) (A) (A) (A) (A) (A) (A) (A) (A)
                 (A) (A) (A) (A) (A) (A) (A) (A) (A) (A) (A) (A)
                 (A) (A) (A) (A) (A) (A) (A) (A) (A) (A) (A) (A)
                 (A) (A) (A) (A) (A) (A) (A) (A) (A) (A) (A) (A)
                 (A) (A) (A) (A) (A) (A) (A) (A) (A) (A) (A) (A)
                 (A) (A) (A) (A) (A) (A) (A) (A) (A) (A) (A) (A)
                 (A) (A) (A) (A) (A) (A) (A) (A) (A) (A) (A) (A)
                 (A) (A) (A) (A) (A) (A) (A) (A) (A) (A) (A) (A)
                 (A) (A) (A) (A) (A) (A) (A) (A) (A) (A) (A) (A)
                 (A) (A) (A) (A) (A) (A) (A) (A) (A) (A) (A) (A)
                 (A) (A) (A) (A) (A) (A) (A) (A) (A) (A) (A) (A)
                 (A) (A) (A) (A) (A) (A) (A) (A) (A) (A) (A) (A)
                 (A) (A) (A) (A) (A) (A) (A) (A) (A) (A) (A) (A)
                 (A) (A) (A) (A) (A) (A) (A) (A) (A) (A) (A) (A)
                 (A) (A) (A) (A) (A) (A) (A) (A) (A) (A) (A) (A)
                 (A) (A) (A) (A) (A) (A) (A) (A) (A) (A) (A) (A)
                 (A) (A) (A) (A) (A) (A) (A) (A) (A) (A) (A) (A)
                 (A) (A) (A) (A) (A) (A) (A) (A) (A) (A) (A) (A)
                 (A) (A) (A) (A) (A) (A) (A) (A) (A) (A) (A) (A)
                 (A) (A) (A) (A) (A) (A) (A) (A) (A) (A) (A) (A)
                 (A) (A) (A) (A) (A) (A) (A) (A) (A) (A) (A) (A)
                 (A) (A) (A) (A) (A) (A) (A) (A) (A) (A) (A) (A)
                 (A) (A)
 The electronic state is 1-A.
 Alpha  occ. eigenvalues --  -19.45214 -19.44223 -19.40641 -19.36599 -19.35741
 Alpha  occ. eigenvalues --  -19.33732 -10.57254 -10.51329 -10.46337 -10.44666
 Alpha  occ. eigenvalues --  -10.44531 -10.44129 -10.40754 -10.39687 -10.39053
 Alpha  occ. eigenvalues --  -10.38842 -10.37176  -1.35212  -1.28108  -1.26104
 Alpha  occ. eigenvalues --   -1.22231  -1.20857  -1.19198  -1.00956  -0.98046
 Alpha  occ. eigenvalues --   -0.94845  -0.89366  -0.87812  -0.85379  -0.82301
 Alpha  occ. eigenvalues --   -0.81401  -0.78265  -0.77349  -0.75987  -0.72497
 Alpha  occ. eigenvalues --   -0.71358  -0.67943  -0.67113  -0.66515  -0.65960
 Alpha  occ. eigenvalues --   -0.63675  -0.63639  -0.62602  -0.61593  -0.61096
 Alpha  occ. eigenvalues --   -0.60668  -0.59371  -0.58548  -0.58054  -0.57581
 Alpha  occ. eigenvalues --   -0.57198  -0.56101  -0.55296  -0.54549  -0.54216
 Alpha  occ. eigenvalues --   -0.52723  -0.52107  -0.51519  -0.49183  -0.48604
 Alpha  occ. eigenvalues --   -0.47616  -0.46750  -0.46398  -0.43309  -0.41740
 Alpha  occ. eigenvalues --   -0.40029
 Alpha virt. eigenvalues --   -0.20150  -0.12159  -0.11725  -0.09707  -0.08953
 Alpha virt. eigenvalues --   -0.08361  -0.08239  -0.07389  -0.06754  -0.06733
 Alpha virt. eigenvalues --   -0.06492  -0.06072  -0.05277  -0.04889  -0.04420
 Alpha virt. eigenvalues --   -0.04013  -0.03606  -0.03098  -0.02703  -0.02199
 Alpha virt. eigenvalues --   -0.02053  -0.01524  -0.01301  -0.00693  -0.00410
 Alpha virt. eigenvalues --   -0.00236   0.00283   0.00553   0.01354   0.01415
 Alpha virt. eigenvalues --    0.01791   0.01954   0.02394   0.02609   0.03261
 Alpha virt. eigenvalues --    0.03644   0.04210   0.04707   0.05105   0.05405
 Alpha virt. eigenvalues --    0.05679   0.06322   0.06389   0.06662   0.07089
 Alpha virt. eigenvalues --    0.07487   0.07580   0.07804   0.08509   0.09005
 Alpha virt. eigenvalues --    0.09393   0.09647   0.09978   0.10495   0.11056
 Alpha virt. eigenvalues --    0.11223   0.11902   0.12189   0.12367   0.12458
 Alpha virt. eigenvalues --    0.13150   0.13424   0.13530   0.14125   0.14410
 Alpha virt. eigenvalues --    0.14695   0.14851   0.15340   0.15448   0.16070
 Alpha virt. eigenvalues --    0.16458   0.17318   0.17686   0.18194   0.18308
 Alpha virt. eigenvalues --    0.18933   0.19434   0.19785   0.20345   0.21031
 Alpha virt. eigenvalues --    0.21619   0.21703   0.22516   0.22725   0.23182
 Alpha virt. eigenvalues --    0.23628   0.24070   0.24701   0.25334   0.25776
 Alpha virt. eigenvalues --    0.26373   0.27380   0.27771   0.28116   0.28427
 Alpha virt. eigenvalues --    0.28665   0.29523   0.29804   0.31206   0.31441
 Alpha virt. eigenvalues --    0.31878   0.32777   0.33150   0.33810   0.34225
 Alpha virt. eigenvalues --    0.34941   0.35866   0.36264   0.37139   0.38059
 Alpha virt. eigenvalues --    0.38638   0.39391   0.40660   0.41075   0.41817
 Alpha virt. eigenvalues --    0.42681   0.43506   0.44639   0.45220   0.46110
 Alpha virt. eigenvalues --    0.46373   0.47195   0.47863   0.48612   0.49127
 Alpha virt. eigenvalues --    0.49727   0.51229   0.51897   0.52707   0.53955
 Alpha virt. eigenvalues --    0.54284   0.55150   0.55171   0.55880   0.56458
 Alpha virt. eigenvalues --    0.56630   0.57307   0.57509   0.58043   0.59080
 Alpha virt. eigenvalues --    0.59327   0.60460   0.60618   0.60820   0.61631
 Alpha virt. eigenvalues --    0.62476   0.62855   0.63415   0.63532   0.64447
 Alpha virt. eigenvalues --    0.64751   0.66265   0.66785   0.68535   0.68862
 Alpha virt. eigenvalues --    0.71039   0.72261   0.75780   0.77825   0.79750
 Alpha virt. eigenvalues --    0.82030   0.85279   0.86563   0.89047   0.89463
 Alpha virt. eigenvalues --    0.90468   0.92348   0.94263   0.95060   0.96304
 Alpha virt. eigenvalues --    0.97132   0.97547   0.98371   0.99261   1.00509
 Alpha virt. eigenvalues --    1.01108   1.02613   1.03576   1.05595   1.06348
 Alpha virt. eigenvalues --    1.07072   1.09513   1.10105   1.11512   1.13053
 Alpha virt. eigenvalues --    1.14407   1.16461   1.16889   1.17961   1.20021
 Alpha virt. eigenvalues --    1.20528   1.21511   1.23367   1.24475   1.25860
 Alpha virt. eigenvalues --    1.26850   1.27752   1.28067   1.30128   1.30428
 Alpha virt. eigenvalues --    1.31787   1.33086   1.33443   1.34486   1.34653
 Alpha virt. eigenvalues --    1.36134   1.36435   1.37970   1.38957   1.40203
 Alpha virt. eigenvalues --    1.41201   1.41593   1.43044   1.43588   1.44447
 Alpha virt. eigenvalues --    1.45108   1.45453   1.46352   1.46980   1.47284
 Alpha virt. eigenvalues --    1.48262   1.48428   1.49787   1.49968   1.50516
 Alpha virt. eigenvalues --    1.50785   1.51265   1.51896   1.53952   1.55284
 Alpha virt. eigenvalues --    1.56606   1.56965   1.57697   1.58642   1.58957
 Alpha virt. eigenvalues --    1.59845   1.60696   1.60979   1.63330   1.63642
 Alpha virt. eigenvalues --    1.64304   1.65757   1.66633   1.66829   1.69315
 Alpha virt. eigenvalues --    1.70033   1.70679   1.72639   1.73386   1.75311
 Alpha virt. eigenvalues --    1.77064   1.77911   1.79560   1.79981   1.81586
 Alpha virt. eigenvalues --    1.82031   1.83003   1.85584   1.86262   1.88062
 Alpha virt. eigenvalues --    1.88934   1.91721   1.92322   1.93146   1.95128
 Alpha virt. eigenvalues --    1.96094   1.99000   1.99599   2.00543   2.02675
 Alpha virt. eigenvalues --    2.03577   2.05029   2.06191   2.07074   2.07951
 Alpha virt. eigenvalues --    2.08947   2.09221   2.10861   2.13061   2.14022
 Alpha virt. eigenvalues --    2.15419   2.17827   2.19098   2.19677   2.21424
 Alpha virt. eigenvalues --    2.23804   2.32501   2.33122   2.33299   2.33878
 Alpha virt. eigenvalues --    2.34132   2.36498   2.39211   2.39606   2.40089
 Alpha virt. eigenvalues --    2.41453   2.41776   2.42138   2.42691   2.43130
 Alpha virt. eigenvalues --    2.43899   2.44338   2.45416   2.46114   2.47685
 Alpha virt. eigenvalues --    2.48231   2.48643   2.49402   2.50415   2.52173
 Alpha virt. eigenvalues --    2.55991   2.56708   2.57473   2.58357   2.60463
 Alpha virt. eigenvalues --    2.61281   2.67524   2.69054   2.70654   2.71947
 Alpha virt. eigenvalues --    2.73120   2.73428   2.75932   2.76431   2.76758
 Alpha virt. eigenvalues --    2.78245   2.80021   2.81851   2.84177   2.84981
 Alpha virt. eigenvalues --    2.86656   2.89392   2.91473   2.91954   2.93661
 Alpha virt. eigenvalues --    2.94597   2.95341   2.97679   2.97842   2.99671
 Alpha virt. eigenvalues --    3.00858   3.01608   3.04711   3.05831   3.06107
 Alpha virt. eigenvalues --    3.07713   3.08955   3.10530   3.11150   3.11867
 Alpha virt. eigenvalues --    3.13836   3.14842   3.16381   3.19558   3.20601
 Alpha virt. eigenvalues --    3.25150   3.27413   3.30757   3.35477   3.39438
 Alpha virt. eigenvalues --    3.48684   3.62384   3.65718   3.67074   3.67820
 Alpha virt. eigenvalues --    3.68565   3.68756   3.70578   3.71303   3.71645
 Alpha virt. eigenvalues --    3.72323   3.77291   3.82144   3.85626   3.89071
 Alpha virt. eigenvalues --    3.93325   3.94907   3.98350   3.98551   4.02548
 Alpha virt. eigenvalues --    4.04157   4.07687   4.09562   4.09845   4.12367
 Alpha virt. eigenvalues --    4.20384   4.25006   4.94703   4.96826   5.02438
 Alpha virt. eigenvalues --    5.03662   5.04265   5.07935   5.13333   5.21513
 Alpha virt. eigenvalues --    5.28136   5.31297   5.33746   5.34018   5.47710
 Alpha virt. eigenvalues --    5.57996   5.59622   5.59878   5.64187   5.81527
 Alpha virt. eigenvalues --   23.68523  23.72302  23.75863  23.77403  23.80849
 Alpha virt. eigenvalues --   23.82064  23.87971  23.89169  23.89960  23.90400
 Alpha virt. eigenvalues --   23.90803  49.89435  49.90166  49.94378  49.95764
 Alpha virt. eigenvalues --   49.97191  50.01716
          Condensed to atoms (all electrons):
               1          2          3          4          5          6
     1  C   10.562544  -5.074714   0.790528  -0.604983  -0.777068   0.890481
     2  C   -5.074714  21.734929  -8.110399   0.450931   2.647510  -3.588193
     3  C    0.790528  -8.110399  20.943348 -13.317762   5.660905  -2.471858
     4  C   -0.604983   0.450931 -13.317762  29.643067 -15.522234   7.482898
     5  C   -0.777068   2.647510   5.660905 -15.522234  24.571896 -11.672998
     6  C    0.890481  -3.588193  -2.471858   7.482898 -11.672998  16.275485
     7  O    0.026320  -0.349920   0.187592  -0.000629  -0.246511   0.530177
     8  O   -0.028916   0.109753   0.045992  -0.263041   0.155177  -0.070299
     9  O    0.015649  -0.163908  -0.083690   0.188174  -0.333820   0.350159
    10  O   -0.229933   0.056104   0.126268   0.050551  -0.028569   0.026654
    11  H    0.379620  -0.101968   0.076315  -0.001797   0.007268  -0.013943
    12  H    0.294931   0.061121  -0.053130   0.018302  -0.017664   0.023170
    13  H    0.065793   0.071869   0.086395   0.024675  -0.080591   0.076275
    14  H    0.009657  -0.084858   0.445548  -0.005369  -0.031890   0.005046
    15  H    0.002964  -0.016442   0.083827   0.144065   0.087424  -0.030059
    16  H    0.005099  -0.043652   0.028308  -0.022153   0.276796   0.107332
    17  H   -0.016901   0.008603   0.029340  -0.028304   0.075831   0.265937
    18  O    0.028357  -0.044949   0.039786  -0.116082   0.283689  -0.097441
    19  C    0.056391  -0.311364   0.076489  -0.044229   0.003528  -0.002636
    20  H    0.029535  -0.000574  -0.004185   0.000351  -0.000272   0.000112
    21  H   -0.008733  -0.019434   0.011365  -0.000336  -0.000375   0.001151
    22  H   -0.001858   0.003583  -0.006697   0.000813   0.000154  -0.000747
    23  C   -0.021402   0.071114  -0.087368   0.084036  -0.147620  -0.192902
    24  H   -0.000104  -0.007948  -0.000090   0.007072  -0.044357   0.037181
    25  H    0.002443   0.014623   0.007746   0.038759  -0.063172  -0.020877
    26  H   -0.001512  -0.002382  -0.000836  -0.011446   0.061319  -0.006601
    27  C    0.003232  -0.199082   0.182434  -0.316977  -0.167028   0.133402
    28  H    0.001002   0.006033   0.074343  -0.067382  -0.026721   0.002310
    29  H   -0.000478  -0.001286  -0.012577  -0.033363   0.048092  -0.003668
    30  H    0.000031  -0.000009   0.004075   0.018199   0.002800  -0.000900
    31  C   -0.135464   0.267018   0.415457  -1.125143   1.066771  -1.212012
    32  O   -0.101030   0.345656  -0.128759  -0.095297   0.069951   0.065249
    33  C    0.123531  -0.741297   0.825896  -0.156952   0.205636  -0.477475
    34  H   -0.000589  -0.000096  -0.011693   0.007465  -0.006652   0.004611
    35  H    0.006135  -0.013656   0.008391  -0.001993  -0.005729   0.007679
    36  H   -0.000799   0.001846  -0.002704   0.001027   0.007588  -0.011378
               7          8          9         10         11         12
     1  C    0.026320  -0.028916   0.015649  -0.229933   0.379620   0.294931
     2  C   -0.349920   0.109753  -0.163908   0.056104  -0.101968   0.061121
     3  C    0.187592   0.045992  -0.083690   0.126268   0.076315  -0.053130
     4  C   -0.000629  -0.263041   0.188174   0.050551  -0.001797   0.018302
     5  C   -0.246511   0.155177  -0.333820  -0.028569   0.007268  -0.017664
     6  C    0.530177  -0.070299   0.350159   0.026654  -0.013943   0.023170
     7  O    7.746853  -0.004198   0.046198   0.019525  -0.001741   0.009967
     8  O   -0.004198   7.954587   0.079875  -0.001168   0.000035  -0.000129
     9  O    0.046198   0.079875   7.953052   0.000021  -0.002187   0.016112
    10  O    0.019525  -0.001168   0.000021   8.128000  -0.039086  -0.045683
    11  H   -0.001741   0.000035  -0.002187  -0.039086   0.511604  -0.044307
    12  H    0.009967  -0.000129   0.016112  -0.045683  -0.044307   0.531367
    13  H   -0.003745  -0.002536   0.011893   0.004542  -0.008153   0.005561
    14  H    0.006524  -0.009412  -0.049436   0.014193  -0.000055   0.001601
    15  H    0.000556  -0.018801   0.012658  -0.000152  -0.000013   0.000019
    16  H    0.005381   0.006950   0.004853   0.000044  -0.000001   0.000012
    17  H   -0.062951  -0.001793  -0.005979   0.000079   0.000137  -0.000024
    18  O    0.015478   0.004035  -0.002067  -0.000170   0.000362  -0.000156
    19  C    0.006506  -0.000441  -0.001256   0.110780  -0.001796  -0.002280
    20  H    0.000114  -0.000002   0.000076  -0.053074  -0.000194  -0.000297
    21  H    0.000355  -0.000002   0.000389  -0.038850  -0.003599   0.011620
    22  H   -0.000237   0.000001  -0.000094  -0.048060   0.010833  -0.004016
    23  C    0.000538  -0.012127   0.000564  -0.000379  -0.000171   0.000007
    24  H    0.000239   0.001123  -0.000015   0.000001   0.000000  -0.000000
    25  H   -0.000181  -0.003517   0.000056  -0.000005   0.000000  -0.000001
    26  H   -0.000229  -0.000051  -0.000009  -0.000001   0.000000  -0.000000
    27  C    0.005287   0.168825   0.027452   0.003213   0.000163   0.000177
    28  H   -0.000060  -0.040911  -0.003684  -0.000023  -0.000001   0.000019
    29  H    0.000016  -0.031094   0.000820  -0.000038  -0.000001   0.000000
    30  H    0.000022  -0.058093  -0.000542  -0.000000  -0.000000   0.000000
    31  C   -0.006342   0.074305   0.345178  -0.001539   0.007030   0.006596
    32  O   -0.095671   0.023454  -0.091781  -0.002368   0.000384  -0.002360
    33  C    0.022125  -0.126674  -0.528875   0.008591   0.001949  -0.013458
    34  H    0.000163  -0.001055  -0.001563   0.000008   0.000000  -0.000007
    35  H    0.000151   0.000293  -0.011307   0.000061   0.000002   0.000019
    36  H   -0.000234   0.000144   0.015232   0.000005   0.000001  -0.000036
              13         14         15         16         17         18
     1  C    0.065793   0.009657   0.002964   0.005099  -0.016901   0.028357
     2  C    0.071869  -0.084858  -0.016442  -0.043652   0.008603  -0.044949
     3  C    0.086395   0.445548   0.083827   0.028308   0.029340   0.039786
     4  C    0.024675  -0.005369   0.144065  -0.022153  -0.028304  -0.116082
     5  C   -0.080591  -0.031890   0.087424   0.276796   0.075831   0.283689
     6  C    0.076275   0.005046  -0.030059   0.107332   0.265937  -0.097441
     7  O   -0.003745   0.006524   0.000556   0.005381  -0.062951   0.015478
     8  O   -0.002536  -0.009412  -0.018801   0.006950  -0.001793   0.004035
     9  O    0.011893  -0.049436   0.012658   0.004853  -0.005979  -0.002067
    10  O    0.004542   0.014193  -0.000152   0.000044   0.000079  -0.000170
    11  H   -0.008153  -0.000055  -0.000013  -0.000001   0.000137   0.000362
    12  H    0.005561   0.001601   0.000019   0.000012  -0.000024  -0.000156
    13  H    0.434038   0.001877   0.001479   0.000081   0.000028  -0.003368
    14  H    0.001877   0.388666  -0.006480   0.000030   0.000062  -0.000113
    15  H    0.001479  -0.006480   0.477534   0.000449  -0.000212   0.002537
    16  H    0.000081   0.000030   0.000449   0.433328  -0.005664  -0.038227
    17  H    0.000028   0.000062  -0.000212  -0.005664   0.439215   0.004305
[...]
 6449,-0.00358363,-0.00551985,-0.00001390,-0.00501725,0.00184401,-0.000
 35639,-0.00137472,0.00001062,0.00008980,0.00008836,-0.00008601,0.00008
 631,-0.00006092,-0.00031870,-0.00019235,0.00011011,0.00171676,0.000662
 75,-0.00031980,0.00003570,-0.00016586,-0.00005885,-0.00069772,-0.00014
 315,-0.00037700,-0.00055152,0.00006686,-0.00012937,-0.00293038,-0.0005
 8799,-0.00053616,-0.00003999,-0.00137103,-0.00083421,0.00049954,-0.000
 25824,-0.00002244,0.00071486,-0.00006910,-0.00002770,-0.03360497,0.025
 83726,0.77096881,-0.00006266,-0.00004660,-0.00054203,0.00095857,-0.001
 99731,-0.00023135,-0.00510611,0.00273057,-0.00378013,-0.00027483,0.000
 33369,0.00434163,0.00255253,0.02950241,-0.01023973,-0.06161122,0.00140
 126,-0.00161976,0.00501430,-0.02567464,0.01805799,-0.00129239,-0.00365
 563,-0.00385611,0.02469058,0.01560068,0.02662649,-0.00012530,-0.000010
 34,0.00040044,-0.00000175,-0.00000806,0.00007063,0.00023991,0.00006808
 ,-0.00003651,-0.00051078,-0.00018232,0.00065006,0.00087700,-0.00076536
 ,0.00034743,0.00059999,0.00019624,-0.00015387,0.00132210,0.00027169,-0
 .00002420,0.00229899,0.00114863,-0.00079552,-0.01008356,0.00227949,-0.
 00557322,0.00020021,0.00001007,-0.00021262,-0.00000111,0.00001901,0.00
 001640,-0.00000457,-0.00000591,0.00000639,-0.00004082,-0.00003567,-0.0
 0000103,0.00319746,0.00059502,-0.00141824,-0.00011655,-0.00014605,0.00
 019723,-0.00054569,-0.00008618,-0.00021089,-0.00087551,0.00017999,-0.0
 0014362,-0.00087327,0.00210105,0.00033011,0.00020837,-0.00047165,-0.00
 038175,-0.00005491,-0.00053714,-0.00036334,-0.00001340,-0.00014068,-0.
 00007231,-0.09277760,0.08841008,0.03489060,0.12379438,0.00230773,-0.00
 084694,0.00080339,-0.00271712,-0.00998932,-0.01769376,0.00420136,-0.01
 090801,0.01906330,-0.00098752,-0.00068122,-0.00475265,-0.00321938,-0.0
 2564034,0.00402073,0.03068681,-0.01395847,-0.03636611,-0.04277891,-0.0
 1466617,0.05436644,-0.00016313,0.00293529,-0.00110837,0.01228723,-0.00
 874087,-0.07304564,-0.00144771,0.00182941,0.00162910,0.00054492,0.0003
 9846,-0.00058710,-0.00065377,-0.00013819,-0.00017886,0.00180236,0.0027
 0618,0.00285961,-0.00127381,0.00232150,-0.00087583,-0.00151960,0.00119
 664,0.00092879,-0.00001100,-0.00023325,0.00059590,0.01070467,-0.033857
 97,0.02263562,0.01116283,0.00064510,0.00539927,0.00084246,-0.00013558,
 0.00016250,-0.00016113,0.00001727,0.00015806,-0.00024068,0.00001800,-0
 .00006737,-0.00001221,0.00006834,-0.00007029,-0.00424988,0.00014634,0.
 00093157,0.00018492,0.00008948,-0.00021611,0.00101726,0.00000721,0.000
 44380,0.00082846,-0.00013883,0.00022433,0.00097777,-0.00041932,-0.0010
 6116,-0.00034527,0.00036412,0.00072915,-0.00045898,0.00013487,-0.00002
 965,0.00021154,0.00017234,0.00015461,0.09102042,-0.37778628,-0.0895002
 8,-0.12677088,0.54415110,-0.00054526,0.00023499,0.00057175,-0.00232375
 ,0.00277372,0.00145361,0.00326307,-0.00528193,0.00974133,0.00302397,0.
 00080908,-0.00030569,-0.00695678,0.02115826,-0.00968520,-0.00536231,-0
 .00729737,-0.07960738,0.01718265,0.03124280,-0.02323678,-0.00162500,-0
 .00118203,-0.00003841,0.02265156,-0.06242306,-0.04941662,0.00080951,-0
 .00015091,-0.00078025,-0.00005340,0.00007273,-0.00016753,-0.00026534,-
 0.00015640,-0.00015808,0.00019950,0.00000633,-0.00066267,-0.00060279,0
 .00042306,0.00010011,-0.00028139,0.00065332,0.00088263,-0.00115505,-0.
 00003380,0.00046670,0.00270851,-0.01142434,0.00930725,-0.00498525,-0.0
 0004964,0.00103508,-0.00074569,0.00010665,0.00043040,0.00002622,-0.000
 03401,-0.00005273,0.00007018,-0.00004062,0.00002158,0.00009780,0.00006
 346,-0.00001899,0.00103282,0.00070816,-0.00067746,-0.00013759,0.000025
 92,0.00006718,0.00000749,-0.00000453,0.00000516,-0.00038397,0.00005092
 ,-0.00005836,0.00023777,0.00015812,-0.00021502,-0.00000115,0.00032998,
 0.00016869,-0.00014609,-0.00005685,0.00001282,-0.00017357,0.00000898,-
 0.00001341,0.04047908,-0.11210371,-0.18424225,-0.05866189,0.12379497,0
 .31081251,-0.00018939,0.00001041,-0.00021893,-0.00031117,0.00142432,-0
 .00035247,0.00503574,0.00423325,-0.00075517,0.00024997,-0.00110958,0.0
 0156595,-0.00022812,-0.00069409,0.00051425,0.00529815,0.00046531,0.003
 36716,0.00120141,0.00054809,-0.00248986,-0.00003782,0.00049119,-0.0002
 2531,0.00983272,-0.00139844,0.00381716,-0.00005134,0.00002367,0.000158
 04,-0.00002222,-0.00001788,0.00004477,0.00006417,-0.00005609,0.0000141
 5,0.00008678,0.00009975,-0.00001315,0.00045426,-0.00056867,0.00034361,
 0.00043275,-0.00010790,-0.00036896,-0.00012991,-0.00009411,-0.00007585
 ,-0.00037607,0.00073917,-0.00052225,0.00051699,-0.00032874,0.00030979,
 0.00010211,-0.00003489,-0.00007065,0.00000220,0.00000008,0.00001110,-0
 .00001706,-0.00000775,-0.00001029,-0.00001677,-0.00000033,0.00000043,-
 0.00026850,-0.00000499,0.00010152,0.00000950,0.00000902,-0.00002552,0.
 00000164,0.00002476,0.00000279,0.00004551,-0.00001933,-0.00000293,-0.0
 0000464,-0.00017073,-0.00019025,-0.00003757,-0.00001617,0.00007447,-0.
 00005042,-0.00000728,0.00001221,0.00002520,0.00002394,0.00000620,-0.09
 454175,0.03050771,-0.02280462,0.00944463,0.01370148,-0.00851963,0.5452
 1645,0.00004586,-0.00003000,-0.00020799,-0.00068321,-0.00011552,-0.002
 02452,0.00325634,0.00300222,-0.00372582,0.00014370,-0.00125284,0.00085
 200,-0.00079508,-0.00103518,0.00002878,0.00243773,0.00859330,-0.006422
 29,-0.00221102,-0.00029540,0.00272182,-0.00013138,0.00090897,0.0002873
 8,-0.00103185,0.00773126,0.00591206,-0.00025210,0.00012199,0.00036474,
 0.00002798,-0.00000536,0.00002955,0.00007644,0.00000095,0.00003865,0.0
 0024881,0.00028222,0.00025001,-0.00000167,0.00025503,-0.00022089,0.000
 23924,-0.00013333,-0.00011812,-0.00008418,-0.00001433,0.00002122,0.000
 27259,-0.00056736,0.00051137,0.00116108,-0.00047535,0.00059479,0.00023
 437,-0.00002153,-0.00010209,-0.00001554,0.00000802,0.00002843,-0.00002
 458,0.00000206,-0.00001422,-0.00002274,-0.00001329,-0.00000242,-0.0005
 7939,0.00005340,0.00009246,0.00003442,0.00001504,-0.00003529,0.0000759
 0,0.00002432,0.00002551,0.00008515,-0.00003536,0.00002205,-0.00005025,
 -0.00042326,-0.00023309,-0.00004188,0.00000875,0.00012667,0.00000625,0
 .00008066,0.00004255,0.00011278,0.00002098,0.00001121,0.02150788,-0.17
 053648,0.07271031,0.01327018,-0.05311572,0.01252083,-0.02465869,0.5376
 3970,-0.00022598,0.00006747,0.00013180,-0.00116215,0.00000986,-0.00234
 358,0.00512971,-0.00301456,0.00285127,0.00057799,0.00022504,-0.0007703
 1,-0.00043284,-0.00083193,-0.00040453,0.00130853,0.00035978,-0.0037143
 3,-0.00161208,-0.00006809,0.00243999,-0.00031200,-0.00014858,0.0001783
 3,-0.00672251,0.03181836,-0.04713634,0.00028690,0.00002417,-0.00014624
 ,0.00009841,0.00000918,-0.00006903,-0.00002182,-0.00007249,-0.00000547
 ,0.00048762,0.00053906,0.00021459,-0.00037517,0.00070336,-0.00045761,-
 0.00028775,0.00012327,0.00018623,0.00000323,0.00009279,0.00008050,0.00
 030293,-0.00079251,0.00056397,0.00025570,0.00015347,0.00029128,-0.0002
 3013,0.00008276,0.00014327,0.00000068,-0.00000876,-0.00001363,0.000033
 01,-0.00001356,0.00001014,0.00004339,0.00000889,-0.00000987,-0.0000022
 2,-0.00006332,0.00002019,-0.00001224,0.00000780,0.00001135,0.00004824,
 0.00000283,0.00002664,0.00003005,0.00000184,0.00000722,0.00027137,0.00
 013979,0.00019765,0.00003781,0.00005716,0.00007371,-0.00002091,0.00002
 387,-0.00001549,-0.00001895,0.00000222,-0.00000298,-0.01806835,0.07407
 136,-0.13369087,0.00155624,-0.01568751,0.01448977,0.00281127,0.0532784
 0,0.59098932,-0.00006434,0.00001730,0.00003937,-0.00005196,0.00000174,
 0.00014736,-0.00022998,-0.00075062,0.00054601,0.00022953,0.00044114,-0
 .00031463,0.00019833,0.00009522,-0.00007832,-0.00051498,-0.00118402,0.
 00048916,0.00014275,0.00012622,-0.00023044,-0.00019280,-0.00038171,0.0
 0001924,-0.00007500,0.00017496,-0.00218435,0.00010289,-0.00001853,-0.0
 0009119,0.00000893,0.00000067,-0.00001278,-0.00002154,0.00000039,-0.00
 001003,0.00002222,0.00002425,-0.00001527,-0.00007589,0.00006840,-0.000
 04534,-0.00012984,0.00005207,0.00008593,0.00000969,0.00003983,0.000009
 24,-0.00001735,0.00000458,-0.00002784,-0.00025743,0.00012960,-0.000096
 94,-0.00008764,0.00002124,0.00003755,0.00000522,-0.00000449,-0.0000061
 0,0.00001109,-0.00000562,0.00000325,0.00001175,0.00000395,-0.00000098,
 0.00014071,-0.00002107,-0.00001936,-0.00000984,0.00000222,0.00001252,-
 0.00001087,-0.00000517,-0.00000872,-0.00001821,0.00000783,-0.00000344,
 0.00018104,0.00013895,-0.00003552,0.00002135,0.00001056,0.00003539,-0.
 00004242,-0.00005357,0.00002701,-0.00011673,-0.00004181,-0.00004462,0.
 00630324,-0.00095368,0.00223553,-0.00151324,0.00340445,0.00069751,-0.2
 4785712,-0.11034897,0.02586376,0.26780974,-0.00000318,0.00000530,0.000
 05530,-0.00001867,0.00018053,-0.00014318,0.00061979,0.00022924,0.00036
 014,-0.00017685,-0.00048418,0.00027173,-0.00024086,-0.00043210,0.00014
 376,0.00159974,0.00015398,0.00033745,0.00009032,0.00020666,-0.00032073
 ,-0.00029273,0.00024229,-0.00067871,0.00153692,-0.00010742,-0.00135692
 ,0.00002675,-0.00001097,-0.00004648,0.00000052,0.00000386,-0.00001158,
 -0.00001327,-0.00001159,-0.00000414,0.00001475,0.00001501,0.00001195,0
 .00007962,-0.00006377,0.00005451,0.00007458,0.00007526,-0.00011429,0.0
 0001499,-0.00005189,-0.00001740,-0.00005178,0.00004777,-0.00003289,0.0
 0019593,0.00001049,0.00005967,-0.00002736,0.00000186,0.00002283,-0.000
 00042,0.00000017,-0.00000506,0.00000190,0.00000145,0.00000284,0.000003
 61,0.00000203,-0.00000116,-0.00003388,-0.00002049,0.00005397,0.0000008
 4,-0.00000226,-0.00000578,0.00001103,0.00000050,0.00001054,0.00001803,
 0.00000045,-0.00000092,0.00018577,0.00044922,0.00034206,0.00005849,-0.
 00002461,-0.00005313,-0.00002369,-0.00006956,-0.00007724,-0.00004194,0
 .00003722,0.00002344,-0.02698717,-0.01692749,0.00391962,0.00232329,-0.
 00072327,0.00083389,-0.11351496,-0.09997820,0.01754683,0.12274487,0.11
 058606,0.00002606,0.00000061,0.00005026,0.00005523,-0.00020157,0.00016
 887,-0.00126303,-0.00092758,0.00017063,0.00035560,0.00075826,-0.000705
 31,-0.00004796,0.00010028,0.00000323,-0.00040061,-0.00010415,-0.000145
 53,-0.00003731,-0.00002315,0.00009288,0.00011892,-0.00076169,0.0002946
 1,-0.00200440,0.00107675,-0.00188061,0.00000920,-0.00002036,-0.0000377
 8,-0.00000208,0.00000466,-0.00001142,-0.00002544,0.00000152,-0.0000024
 5,-0.00000698,-0.00001471,-0.00000589,-0.00010933,0.00016672,-0.000124
 03,-0.00018208,0.00001004,0.00017008,0.00001254,0.00002721,0.00003004,
 -0.00000397,-0.00003454,0.00002726,-0.00004737,-0.00002697,-0.00003856
 ,-0.00001475,0.00001004,0.00000922,0.00000246,0.00000182,-0.00000518,0
 .00000428,0.00000125,0.00000336,0.00000273,-0.00000267,-0.00000121,0.0
 0001385,0.00001287,0.00000641,0.00000106,-0.00000246,-0.00000022,-0.00
 000222,-0.00000327,-0.00000921,-0.00000397,-0.00000077,-0.00000181,-0.
 00015750,0.00012837,-0.00000493,0.00007741,0.00001794,-0.00021692,0.00
 005676,-0.00012196,0.00002382,-0.00018090,-0.00000882,0.00000442,0.021
 11993,0.00934088,-0.00459943,-0.00052490,-0.00075822,0.00028043,0.0279
 4962,0.01850242,-0.04291886,-0.03078233,-0.02005522,0.04645300,0.00007
 528,-0.00004329,0.00009985,0.00010044,0.00004902,0.00012120,-0.0000631
 3,0.00002252,-0.00023627,0.00000049,0.00000806,0.00003282,-0.00004846,
 -0.00006373,0.00000799,0.00047874,-0.00051317,0.00045447,-0.00000342,0
 .00012387,-0.00020111,-0.00006963,-0.00014860,-0.00020057,0.00079992,-
 0.00079459,-0.00021441,-0.00006545,-0.00001253,-0.00004404,-0.00001815
 ,0.00000628,-0.00000358,-0.00001280,0.00002046,-0.00001922,-0.00004394
 ,-0.00004161,-0.00001080,0.00001876,0.00001196,-0.00001077,0.00001738,
 0.00002757,-0.00000778,0.00001714,-0.00001339,-0.00000593,-0.00003132,
 0.00003379,-0.00004642,0.00001439,-0.00001402,-0.00000092,0.00004098,-
 0.00002737,0.00000988,-0.00000246,0.00000368,-0.00000542,-0.00000881,0
 .00001078,-0.00000090,-0.00000591,0.00000182,-0.00000026,0.00001465,0.
 00000411,0.00001426,-0.00000082,-0.00000156,-0.00000114,-0.00000136,-0
 .00000276,-0.00000366,0.00000093,-0.00000014,-0.00000039,-0.00003774,0
 .00024450,0.00019668,0.00003442,-0.00000680,-0.00012996,0.00002935,-0.
 00006969,-0.00003207,-0.00003801,0.00000528,0.00000803,-0.00482357,-0.
 00136861,0.00339136,0.00050866,0.00019304,-0.00008810,-0.15940513,0.11
 980154,0.07615107,-0.01591518,0.01825602,0.01086673,0.16969077,0.00015
 709,-0.00005621,0.00022550,-0.00009756,-0.00022028,-0.00041916,-0.0002
 0899,-0.00056065,0.00085567,0.00002035,0.00012598,-0.00037340,-0.00018
 577,-0.00031519,-0.00007753,0.00060054,0.00115322,-0.00151041,-0.00073
 025,-0.00002071,0.00087337,-0.00010967,-0.00004908,-0.00005693,-0.0015
 7902,0.00160751,-0.00268647,0.00000887,0.00000318,-0.00014795,-0.00000
 819,0.00003361,-0.00004701,-0.00008137,0.00000792,-0.00002201,0.000054
 83,0.00007632,0.00004225,-0.00004846,0.00010468,-0.00004472,-0.0001106
 8,0.00005496,0.00006028,0.00001401,0.00001219,0.00002592,0.00010033,-0
 .00023541,0.00018853,0.00013680,0.00001975,0.00008567,-0.00006291,0.00
 000082,0.00007053,-0.00000462,0.00000149,-0.00001082,0.00000049,0.0000
 0940,0.00000617,0.00001047,0.00000644,-0.00000312,-0.00001648,-0.00001
 418,0.00001718,-0.00000186,0.00000085,0.00000127,0.00001768,-0.0000008
 8,0.00000846,0.00001381,-0.00000006,0.00000376,0.00004963,0.00010953,0
 .00009928,0.00001899,0.00002946,-0.00002151,0.00000309,-0.00000624,-0.
 00001692,-0.00001880,0.00000919,0.00001509,0.01769615,-0.01864723,-0.0
 1294139,0.00089262,-0.00556469,0.00427460,0.11658734,-0.15529641,-0.07
 608127,-0.01038187,0.01107361,0.00683796,-0.12644574,0.17090285,-0.000
 08435,0.00005612,0.00000933,0.00010052,0.00017209,0.00032103,-0.000333
 03,-0.00004658,0.00035540,0.00007073,0.00014364,-0.00006571,0.00015254
 ,0.00000210,0.00006410,0.00029800,-0.00065420,0.00159656,0.00049121,0.
 00003856,-0.00078867,-0.00004736,-0.00019320,-0.00012645,0.00096974,0.
 00034415,-0.00135242,0.00004113,-0.00008398,-0.00004527,0.00000408,-0.
 00002285,0.00001198,0.00002408,0.00001197,0.00002480,-0.00002364,-0.00
 004890,-0.00004756,0.00001128,-0.00006851,0.00002747,-0.00002364,0.000
 02595,-0.00000004,0.00000427,0.00000336,-0.00002372,-0.00011363,0.0002
 7704,-0.00021959,-0.00013656,0.00005428,-0.00007366,-0.00003447,0.0000
 2442,-0.00001647,0.00000573,0.00000228,-0.00000912,0.00002420,0.000004
 01,0.00000563,0.00000520,-0.00001355,0.00000427,0.00007416,-0.00001470
 ,-0.00000556,-0.00000465,-0.00000066,0.00000402,-0.00001391,-0.0000011
 6,-0.00000472,-0.00001110,0.00000468,-0.00000333,-0.00000843,0.0001629
 1,0.00009931,-0.00000694,-0.00001156,-0.00004799,0.00000598,-0.0000289
 6,-0.00001933,-0.00000933,-0.00001706,-0.00000998,-0.01664352,0.009871
 32,0.01119616,-0.00002435,0.00606630,-0.00197460,0.08079593,-0.0803366
 3,-0.10627492,0.00137182,-0.00265114,-0.00244092,-0.08606421,0.0818998
 2,0.10734125,0.00002815,-0.00000802,0.00007992,-0.00001705,-0.00001757
 ,-0.00010388,0.00038364,-0.00009374,0.00028897,0.00001217,-0.00010305,
 0.00004538,0.00002764,-0.00007287,-0.00010067,0.00011922,0.00013701,-0
 .00007615,-0.00018245,-0.00002677,0.00015609,-0.00010692,0.00011675,-0
 .00012322,0.00138732,-0.00002023,-0.00030855,-0.00001357,-0.00001584,-
 0.00005373,0.00000026,-0.00000175,-0.00000358,-0.00001397,0.00002828,-
 0.00000388,0.00000894,0.00001639,0.00001286,-0.00000221,0.00000612,0.0
 0000722,0.00000536,0.00002860,-0.00001185,-0.00001401,0.00001144,-0.00
 000760,0.00003181,0.00000731,-0.00000071,-0.00003026,0.00003986,0.0000
 3130,-0.00001330,0.00000011,0.00001265,-0.00000100,0.00000035,-0.00000
 456,0.00000461,0.00000668,0.00000128,0.00000323,-0.00000190,0.00000194
 ,0.00003335,-0.00001395,-0.00001565,-0.00000465,0.00000242,0.00000518,
 0.00000099,-0.00000168,0.00000116,-0.00000091,0.00000172,0.00000227,0.
 00006464,0.00005500,0.00008697,-0.00000913,-0.00000339,0.00003426,-0.0
 0000919,0.00001159,-0.00001258,0.00002818,-0.00000404,-0.00000471,-0.0
 0458487,-0.00500963,-0.00076535,-0.00002241,0.00093127,0.00052637,-0.0
 7447517,-0.02210573,-0.08579279,-0.00799610,-0.00643099,-0.02487527,0.
 00875300,0.00370914,0.01913253,0.07660469,0.00007753,-0.00002738,-0.00
 000685,0.00032488,-0.00002971,0.00060450,-0.00129216,0.00012083,0.0000
 6319,-0.00026888,0.00000566,0.00007339,0.00004425,0.00019102,0.0000257
 3,-0.00034028,-0.00042701,0.00037686,0.00015351,-0.00000568,-0.0004278
 2,0.00013657,0.00010924,-0.00005623,0.00081739,-0.00437626,0.00578056,
 -0.00005938,0.00000166,0.00000089,-0.00002392,-0.00000054,0.00001733,-
 0.00000403,0.00002552,-0.00000186,-0.00012118,-0.00013618,-0.00005752,
 0.00007550,-0.00019100,0.00014068,0.00004940,-0.00001196,-0.00003103,0
 .00000960,-0.00001963,-0.00001569,0.00001946,-0.00001894,-0.00000830,-
 0.00006095,-0.00001660,-0.00006823,0.00003288,-0.00001923,-0.00001701,
 -0.00000116,0.,0.00000297,-0.00000991,0.00000256,-0.00000123,-0.000008
 08,0.00000125,0.00000284,0.00000924,0.00001358,-0.00000184,0.00000337,
 -0.00000050,-0.00000200,-0.00000798,-0.00000381,-0.00000557,-0.0000049
 2,0.00000167,-0.00000076,-0.00003673,-0.00011232,-0.00007972,-0.000016
 65,-0.00002167,0.00005416,-0.00000975,0.00003578,0.00000758,0.00004898
 ,0.00000013,0.00000175,0.01113677,0.01065721,0.02477812,-0.00079962,0.
 00034279,-0.00001158,-0.02607886,-0.07540393,-0.08256698,-0.00335933,-
 0.00441515,-0.01393149,-0.00925669,-0.00435571,-0.01497137,0.02882111,
 0.07808431,-0.00004716,0.00002525,-0.00006411,-0.00020660,0.00002151,-
 0.00048631,0.00072011,-0.00023310,0.00029648,0.00010015,-0.00005021,-0
 .00007953,-0.00018438,-0.00027128,0.00000747,0.00070593,0.00133578,-0.
 00048383,-0.00027733,-0.00008127,0.00044059,0.00000385,0.00003664,0.00
 011002,-0.00203635,0.00327794,-0.00218999,0.00000681,0.00002679,0.0000
 7819,0.00001918,-0.00000269,-0.00000257,0.00001911,-0.00003375,0.00000
 461,0.00009949,0.00007344,0.00006136,-0.00004057,0.00011090,-0.0000861
 5,-0.00002787,0.00000193,0.00002619,-0.00001371,0.00000945,0.00001652,
 -0.00000486,-0.00000497,0.00003293,0.00023285,-0.00008672,0.00013525,0
 .00001875,0.00000979,-0.00001128,-0.00000104,0.00000029,0.00000479,-0.
 00000111,-0.00000470,-0.00000155,0.00000015,-0.00000181,-0.00000226,-0
 .00010300,-0.00000062,0.00001829,0.00000668,0.00000441,-0.00000511,0.0
 0001710,0.00000521,0.00000539,0.00001820,-0.00000663,0.00000460,-0.000
 00413,-0.00004525,-0.00003214,0.00000425,0.00001552,0.00000140,0.00000
 208,-0.00000110,0.00001085,-0.00001525,0.00000523,-0.00000082,-0.00533
 203,-0.00636487,-0.01839642,0.00137574,-0.00296852,0.00146442,-0.08525
 459,-0.07552985,-0.27493314,0.00238755,0.00152544,0.00536176,-0.004026
 39,-0.00113070,-0.00751129,0.09183839,0.08033250,0.29620541\\0.0000023
 7,-0.00000042,0.00000296,-0.00000011,-0.00000398,-0.00000391,-0.000004
 35,0.00000158,0.00000073,0.00000604,0.00000049,0.00000207,0.00000380,0
 .00000151,-0.00000013,0.00000349,0.00000152,-0.00000516,0.00000104,0.0
 0000017,-0.00000290,-0.00000577,0.00000407,0.00000550,-0.00000123,0.00
 000338,0.00001015,-0.00000613,-0.00000595,-0.00000602,-0.00000131,-0.0
 0000605,-0.00000828,-0.00000138,-0.00000311,-0.00000552,-0.00000067,-0
 .00000133,-0.00000197,-0.00000187,-0.00000186,0.00000180,-0.00000216,0
 .00000182,0.00000360,0.00000375,0.00000411,0.00000155,0.00000590,0.000
 00277,-0.00000367,0.00000618,0.00000105,-0.00000009,0.00000013,-0.0000
 0786,-0.00000666,-0.00000702,-0.00000843,-0.00000379,-0.00000629,-0.00
 000688,-0.00000523,-0.00000563,-0.00000912,-0.00000699,-0.00000592,0.0
 0000549,-0.00000211,0.00000697,0.00000473,0.00000102,0.00000319,0.0000
 0237,0.00000378,0.00000293,0.00000162,-0.00000097,-0.00000195,-0.00000
 007,0.00000352,-0.00000465,0.00000105,0.00000684,-0.00000387,0.0000021
 1,0.00000926,-0.00000089,0.00000299,0.00000902,0.00000001,0.00000345,-
 0.00000708,0.00000676,-0.00000319,-0.00000161,0.00000277,0.00000236,0.
 00000433,0.00000188,0.00000466,0.00000316,0.00000038,0.00000133,0.0000
 0251,0.00000359,0.00000361,0.00000028\\\@


 I LOVE THOSE WHO LONG FOR THE IMPOSSIBLE.

                                 -- GOETHE
 Job cpu time:       0 days  6 hours 23 minutes 12.0 seconds.
 File lengths (MBytes):  RWF=    766 Int=      0 D2E=      0 Chk=     19 Scr=      1
 Normal termination of Gaussian 09 at Sun Jan  8 11:46:06 2017.
