 Entering Gaussian System, Link 0=g09
 Initial command:
 /share/apps//g09/l1.exe "/scratch/Gau-5875.inp" -scrdir="/scratch/"
 Entering Link 1 = /share/apps//g09/l1.exe PID=      5876.
  
 Copyright (c) 1988,1990,1992,1993,1995,1998,2003,2009,2013,
            Gaussian, Inc.  All Rights Reserved.
  
 This is part of the Gaussian(R) 09 program.  It is based on
 the Gaussian(R) 03 system (copyright 2003, Gaussian, Inc.),
 the Gaussian(R) 98 system (copyright 1998, Gaussian, Inc.),
 the Gaussian(R) 94 system (copyright 1995, Gaussian, Inc.),
 the Gaussian 92(TM) system (copyright 1992, Gaussian, Inc.),
 the Gaussian 90(TM) system (copyright 1990, Gaussian, Inc.),
 the Gaussian 88(TM) system (copyright 1988, Gaussian, Inc.),
 the Gaussian 86(TM) system (copyright 1986, Carnegie Mellon
 University), and the Gaussian 82(TM) system (copyright 1983,
 Carnegie Mellon University). Gaussian is a federally registered
 trademark of Gaussian, Inc.
  
 This software contains proprietary and confidential information,
 including trade secrets, belonging to Gaussian, Inc.
  
 This software is provided under written license and may be
 used, copied, transmitted, or stored only in accord with that
 written license.
  
 The following legend is applicable only to US Government
 contracts under FAR:
  
                    RESTRICTED RIGHTS LEGEND
  
 Use, reproduction and disclosure by the US Government is
 subject to restrictions as set forth in subparagraphs (a)
 and (c) of the Commercial Computer Software - Restricted
 Rights clause in FAR 52.227-19.
  
 Gaussian, Inc.
 340 Quinnipiac St., Bldg. 40, Wallingford CT 06492
  
  
 ---------------------------------------------------------------
 Warning -- This program may not be used in any manner that
 competes with the business of Gaussian, Inc. or will provide
 assistance to any competitor of Gaussian, Inc.  The licensee
 of this program is prohibited from giving any competitor of
 Gaussian, Inc. access to this program.  By using this program,
 the user acknowledges that Gaussian, Inc. is engaged in the
 business of creating and licensing software in the field of
 computational chemistry and represents and warrants to the
 licensee that it is not a competitor of Gaussian, Inc. and that
 it will not use this program in any manner prohibited above.
 ---------------------------------------------------------------
  

 Cite this work as:
 Gaussian 09, Revision D.01,
 M. J. Frisch, G. W. Trucks, H. B. Schlegel, G. E. Scuseria, 
 M. A. Robb, J. R. Cheeseman, G. Scalmani, V. Barone, B. Mennucci, 
 G. A. Petersson, H. Nakatsuji, M. Caricato, X. Li, H. P. Hratchian, 
 A. F. Izmaylov, J. Bloino, G. Zheng, J. L. Sonnenberg, M. Hada, 
 M. Ehara, K. Toyota, R. Fukuda, J. Hasegawa, M. Ishida, T. Nakajima, 
 Y. Honda, O. Kitao, H. Nakai, T. Vreven, J. A. Montgomery, Jr., 
 J. E. Peralta, F. Ogliaro, M. Bearpark, J. J. Heyd, E. Brothers, 
 K. N. Kudin, V. N. Staroverov, T. Keith, R. Kobayashi, J. Normand, 
 K. Raghavachari, A. Rendell, J. C. Burant, S. S. Iyengar, J. Tomasi, 
 M. Cossi, N. Rega, J. M. Millam, M. Klene, J. E. Knox, J. B. Cross, 
 V. Bakken, C. Adamo, J. Jaramillo, R. Gomperts, R. E. Stratmann, 
 O. Yazyev, A. J. Austin, R. Cammi, C. Pomelli, J. W. Ochterski, 
 R. L. Martin, K. Morokuma, V. G. Zakrzewski, G. A. Voth, 
 P. Salvador, J. J. Dannenberg, S. Dapprich, A. D. Daniels, 
 O. Farkas, J. B. Foresman, J. V. Ortiz, J. Cioslowski, 
 and D. J. Fox, Gaussian, Inc., Wallingford CT, 2013.
 
 ******************************************
 Gaussian 09:  EM64L-G09RevD.01 24-Apr-2013
                 9-Jan-2017 
 ******************************************
 %nproc=20
 Will use up to   20 processors via shared memory.
 %mem=100GB
 %chk=Ac-4_cGalMe.chk
 -------------------------------------------------------------------
 #P PBE1PBE/6-311+G(d,p) opt optcyc=999 freq EmpiricalDispersion=GD3
 -------------------------------------------------------------------
 1/6=999,14=-1,18=20,19=15,26=3,38=1/1,3;
 2/9=110,12=2,17=6,18=5,40=1/2;
 3/5=4,6=6,7=111,11=2,16=1,25=1,30=1,71=1,74=-13,124=31/1,2,3;
 4//1;
 5/5=2,38=5/2;
 6/7=2,8=2,9=2,10=2,28=1/1;
 7//1,2,3,16;
 1/6=999,14=-1,18=20,19=15,26=3/3(2);
 2/9=110/2;
 99//99;
 2/9=110/2;
 3/5=4,6=6,7=111,11=2,16=1,25=1,30=1,71=1,74=-13,124=31/1,2,3;
 4/5=5,16=3,69=1/1;
 5/5=2,38=5/2;
 7//1,2,3,16;
 1/6=999,14=-1,18=20,19=15,26=3/3(-5);
 2/9=110/2;
 6/7=2,8=2,9=2,10=2,19=2,28=1/1;
 99/9=1/99;
 Leave Link    1 at Mon Jan  9 13:24:46 2017, MaxMem= 13421772800 cpu:         1.4
 (Enter /share/apps//g09/l101.exe)
 -------
 disacch
 -------
 Symbolic Z-matrix:
 Charge =  1 Multiplicity = 1
 C                    -0.91464  -1.43666   2.94314 
 C                     0.22186  -1.09528   1.98276 
 C                     0.52667   0.38782   1.87724 
 C                     1.72264   0.66446   0.95622 
 C                     1.71068  -0.32404  -0.25618 
 C                     0.32693  -0.95403  -0.38958 
 O                    -0.15519  -1.62487   0.6718 
 O                     1.6778    2.0264    0.58327 
 O                    -0.68488   1.128     1.39548 
 O                    -0.51926  -0.93565   4.20194 
 H                    -1.04853  -2.53438   2.95334 
 H                    -1.86532  -0.98376   2.5979 
 H                     1.14185  -1.60737   2.31053 
 H                     0.66769   0.81739   2.87561 
 H                     2.6246    0.43535   1.55648 
 H                     1.92432   0.23699  -1.18402 
 H                     0.17394  -1.54714  -1.29641 
 O                     2.58304  -1.42313  -0.08742 
 C                    -1.44429  -1.27078   5.24452 
 H                    -1.03905  -0.8444    6.16798 
 H                    -2.43989  -0.83878   5.04667 
 H                    -1.53607  -2.36407   5.35521 
 C                     3.92781  -1.16823  -0.52609 
 H                     3.94665  -0.90266  -1.59556 
 H                     4.40552  -0.36615   0.06112 
 H                     4.47876  -2.10145  -0.37129 
 C                     2.95324   2.56301   0.19564 
 H                     3.67294   2.49348   1.0272 
 H                     3.36492   2.05156  -0.69018 
 H                     2.78011   3.61583  -0.04949 
 C                    -1.05814   1.10796   0.15156 
 O                    -0.64379   0.29468  -0.74617 
 C                    -2.05372   2.13411  -0.23982 
 H                    -1.50177   3.06143  -0.46028 
 H                    -2.72962   2.34331   0.59662 
 H                    -2.60201   1.82355  -1.13315 
 
 NAtoms=     36 NQM=       36 NQMF=       0 NMMI=      0 NMMIF=      0
                NMic=       0 NMicF=      0.
                    Isotopes and Nuclear Properties:
 (Nuclear quadrupole moments (NQMom) in fm**2, nuclear magnetic moments (NMagM)
  in nuclear magnetons)

  Atom         1           2           3           4           5           6           7           8           9          10
 IAtWgt=          12          12          12          12          12          12          16          16          16          16
 AtmWgt=  12.0000000  12.0000000  12.0000000  12.0000000  12.0000000  12.0000000  15.9949146  15.9949146  15.9949146  15.9949146
 NucSpn=           0           0           0           0           0           0           0           0           0           0
 AtZEff=   0.0000000   0.0000000   0.0000000   0.0000000   0.0000000   0.0000000   0.0000000   0.0000000   0.0000000   0.0000000
 NQMom=    0.0000000   0.0000000   0.0000000   0.0000000   0.0000000   0.0000000   0.0000000   0.0000000   0.0000000   0.0000000
 NMagM=    0.0000000   0.0000000   0.0000000   0.0000000   0.0000000   0.0000000   0.0000000   0.0000000   0.0000000   0.0000000
 AtZNuc=   6.0000000   6.0000000   6.0000000   6.0000000   6.0000000   6.0000000   8.0000000   8.0000000   8.0000000   8.0000000

  Atom        11          12          13          14          15          16          17          18          19          20
 IAtWgt=           1           1           1           1           1           1           1          16          12           1
 AtmWgt=   1.0078250   1.0078250   1.0078250   1.0078250   1.0078250   1.0078250   1.0078250  15.9949146  12.0000000   1.0078250
 NucSpn=           1           1           1           1           1           1           1           0           0           1
 AtZEff=   0.0000000   0.0000000   0.0000000   0.0000000   0.0000000   0.0000000   0.0000000   0.0000000   0.0000000   0.0000000
 NQMom=    0.0000000   0.0000000   0.0000000   0.0000000   0.0000000   0.0000000   0.0000000   0.0000000   0.0000000   0.0000000
 NMagM=    2.7928460   2.7928460   2.7928460   2.7928460   2.7928460   2.7928460   2.7928460   0.0000000   0.0000000   2.7928460
 AtZNuc=   1.0000000   1.0000000   1.0000000   1.0000000   1.0000000   1.0000000   1.0000000   8.0000000   6.0000000   1.0000000

  Atom        21          22          23          24          25          26          27          28          29          30
 IAtWgt=           1           1          12           1           1           1          12           1           1           1
 AtmWgt=   1.0078250   1.0078250  12.0000000   1.0078250   1.0078250   1.0078250  12.0000000   1.0078250   1.0078250   1.0078250
 NucSpn=           1           1           0           1           1           1           0           1           1           1
 AtZEff=   0.0000000   0.0000000   0.0000000   0.0000000   0.0000000   0.0000000   0.0000000   0.0000000   0.0000000   0.0000000
 NQMom=    0.0000000   0.0000000   0.0000000   0.0000000   0.0000000   0.0000000   0.0000000   0.0000000   0.0000000   0.0000000
 NMagM=    2.7928460   2.7928460   0.0000000   2.7928460   2.7928460   2.7928460   0.0000000   2.7928460   2.7928460   2.7928460
 AtZNuc=   1.0000000   1.0000000   6.0000000   1.0000000   1.0000000   1.0000000   6.0000000   1.0000000   1.0000000   1.0000000

  Atom        31          32          33          34          35          36
 IAtWgt=          12          16          12           1           1           1
 AtmWgt=  12.0000000  15.9949146  12.0000000   1.0078250   1.0078250   1.0078250
 NucSpn=           0           0           0           1           1           1
 AtZEff=   0.0000000   0.0000000   0.0000000   0.0000000   0.0000000   0.0000000
 NQMom=    0.0000000   0.0000000   0.0000000   0.0000000   0.0000000   0.0000000
 NMagM=    0.0000000   0.0000000   0.0000000   2.7928460   2.7928460   2.7928460
 AtZNuc=   6.0000000   8.0000000   6.0000000   1.0000000   1.0000000   1.0000000
 Leave Link  101 at Mon Jan  9 13:24:46 2017, MaxMem= 13421772800 cpu:         5.0
 (Enter /share/apps//g09/l103.exe)

 GradGradGradGradGradGradGradGradGradGradGradGradGradGradGradGradGradGrad
 Berny optimization.
 Initialization pass.
                           ----------------------------
                           !    Initial Parameters    !
                           ! (Angstroms and Degrees)  !
 --------------------------                            --------------------------
 ! Name  Definition              Value          Derivative Info.                !
 --------------------------------------------------------------------------------
 ! R1    R(1,2)                  1.5266         estimate D2E/DX2                !
 ! R2    R(1,10)                 1.4114         estimate D2E/DX2                !
 ! R3    R(1,11)                 1.1059         estimate D2E/DX2                !
 ! R4    R(1,12)                 1.1082         estimate D2E/DX2                !
 ! R5    R(2,3)                  1.5178         estimate D2E/DX2                !
 ! R6    R(2,7)                  1.4633         estimate D2E/DX2                !
 ! R7    R(2,13)                 1.1027         estimate D2E/DX2                !
 ! R8    R(3,4)                  1.5347         estimate D2E/DX2                !
 ! R9    R(3,9)                  1.4993         estimate D2E/DX2                !
 ! R10   R(3,14)                 1.096          estimate D2E/DX2                !
 ! R11   R(4,5)                  1.5643         estimate D2E/DX2                !
 ! R12   R(4,8)                  1.4128         estimate D2E/DX2                !
 ! R13   R(4,15)                 1.1074         estimate D2E/DX2                !
 ! R14   R(5,6)                  1.5263         estimate D2E/DX2                !
 ! R15   R(5,16)                 1.1051         estimate D2E/DX2                !
 ! R16   R(5,18)                 1.4133         estimate D2E/DX2                !
 ! R17   R(6,7)                  1.345          estimate D2E/DX2                !
 ! R18   R(6,17)                 1.0943         estimate D2E/DX2                !
 ! R19   R(6,32)                 1.6213         estimate D2E/DX2                !
 ! R20   R(8,27)                 1.437          estimate D2E/DX2                !
 ! R21   R(9,31)                 1.2989         estimate D2E/DX2                !
 ! R22   R(10,19)                1.4335         estimate D2E/DX2                !
 ! R23   R(18,23)                1.4373         estimate D2E/DX2                !
 ! R24   R(19,20)                1.0949         estimate D2E/DX2                !
 ! R25   R(19,21)                1.1032         estimate D2E/DX2                !
 ! R26   R(19,22)                1.1027         estimate D2E/DX2                !
 ! R27   R(23,24)                1.1021         estimate D2E/DX2                !
 ! R28   R(23,25)                1.1029         estimate D2E/DX2                !
 ! R29   R(23,26)                1.0947         estimate D2E/DX2                !
 ! R30   R(27,28)                1.102          estimate D2E/DX2                !
 ! R31   R(27,29)                1.1026         estimate D2E/DX2                !
 ! R32   R(27,30)                1.0948         estimate D2E/DX2                !
 ! R33   R(31,32)                1.2802         estimate D2E/DX2                !
 ! R34   R(31,33)                1.4823         estimate D2E/DX2                !
 ! R35   R(33,34)                1.1014         estimate D2E/DX2                !
 ! R36   R(33,35)                1.0956         estimate D2E/DX2                !
 ! R37   R(33,36)                1.0932         estimate D2E/DX2                !
 ! A1    A(2,1,10)             105.8524         estimate D2E/DX2                !
 ! A2    A(2,1,11)             108.536          estimate D2E/DX2                !
 ! A3    A(2,1,12)             110.5652         estimate D2E/DX2                !
 ! A4    A(10,1,11)            112.2129         estimate D2E/DX2                !
 ! A5    A(10,1,12)            111.9074         estimate D2E/DX2                !
 ! A6    A(11,1,12)            107.7384         estimate D2E/DX2                !
 ! A7    A(1,2,3)              114.3154         estimate D2E/DX2                !
 ! A8    A(1,2,7)              106.9086         estimate D2E/DX2                !
 ! A9    A(1,2,13)             109.2842         estimate D2E/DX2                !
 ! A10   A(3,2,7)              110.0664         estimate D2E/DX2                !
 ! A11   A(3,2,13)             107.8718         estimate D2E/DX2                !
 ! A12   A(7,2,13)             108.2515         estimate D2E/DX2                !
 ! A13   A(2,3,4)              111.9857         estimate D2E/DX2                !
 ! A14   A(2,3,9)              110.0273         estimate D2E/DX2                !
 ! A15   A(2,3,14)             110.2128         estimate D2E/DX2                !
 ! A16   A(4,3,9)              110.3599         estimate D2E/DX2                !
 ! A17   A(4,3,14)             112.0721         estimate D2E/DX2                !
 ! A18   A(9,3,14)             101.7234         estimate D2E/DX2                !
 ! A19   A(3,4,5)              110.1978         estimate D2E/DX2                !
 ! A20   A(3,4,8)              107.9067         estimate D2E/DX2                !
 ! A21   A(3,4,15)             105.7913         estimate D2E/DX2                !
 ! A22   A(5,4,8)              113.8482         estimate D2E/DX2                !
 ! A23   A(5,4,15)             107.1929         estimate D2E/DX2                !
 ! A24   A(8,4,15)             111.6159         estimate D2E/DX2                !
 ! A25   A(4,5,6)              109.6027         estimate D2E/DX2                !
 ! A26   A(4,5,16)             109.1733         estimate D2E/DX2                !
 ! A27   A(4,5,18)             113.2122         estimate D2E/DX2                !
 ! A28   A(6,5,16)             108.1457         estimate D2E/DX2                !
 ! A29   A(6,5,18)             104.4213         estimate D2E/DX2                !
 ! A30   A(16,5,18)            112.0688         estimate D2E/DX2                !
 ! A31   A(5,6,7)              117.5093         estimate D2E/DX2                !
 ! A32   A(5,6,17)             115.0177         estimate D2E/DX2                !
 ! A33   A(5,6,32)             104.1307         estimate D2E/DX2                !
 ! A34   A(7,6,17)             109.481          estimate D2E/DX2                !
 ! A35   A(7,6,32)             110.065          estimate D2E/DX2                !
 ! A36   A(17,6,32)             98.7121         estimate D2E/DX2                !
 ! A37   A(2,7,6)              115.7284         estimate D2E/DX2                !
 ! A38   A(4,8,27)             113.7673         estimate D2E/DX2                !
 ! A39   A(3,9,31)             122.1639         estimate D2E/DX2                !
 ! A40   A(1,10,19)            112.6385         estimate D2E/DX2                !
 ! A41   A(5,18,23)            113.775          estimate D2E/DX2                !
 ! A42   A(10,19,20)           106.4715         estimate D2E/DX2                !
 ! A43   A(10,19,21)           111.1235         estimate D2E/DX2                !
 ! A44   A(10,19,22)           111.0081         estimate D2E/DX2                !
 ! A45   A(20,19,21)           109.4384         estimate D2E/DX2                !
 ! A46   A(20,19,22)           109.4049         estimate D2E/DX2                !
 ! A47   A(21,19,22)           109.3381         estimate D2E/DX2                !
 ! A48   A(18,23,24)           110.787          estimate D2E/DX2                !
 ! A49   A(18,23,25)           111.8229         estimate D2E/DX2                !
 ! A50   A(18,23,26)           106.0538         estimate D2E/DX2                !
 ! A51   A(24,23,25)           109.5126         estimate D2E/DX2                !
 ! A52   A(24,23,26)           109.5136         estimate D2E/DX2                !
 ! A53   A(25,23,26)           109.0677         estimate D2E/DX2                !
 ! A54   A(8,27,28)            110.6443         estimate D2E/DX2                !
 ! A55   A(8,27,29)            112.0177         estimate D2E/DX2                !
 ! A56   A(8,27,30)            106.2098         estimate D2E/DX2                !
 ! A57   A(28,27,29)           109.4592         estimate D2E/DX2                !
 ! A58   A(28,27,30)           109.4471         estimate D2E/DX2                !
 ! A59   A(29,27,30)           108.9804         estimate D2E/DX2                !
 ! A60   A(9,31,32)            126.0396         estimate D2E/DX2                !
 ! A61   A(9,31,33)            115.797          estimate D2E/DX2                !
 ! A62   A(32,31,33)           118.1631         estimate D2E/DX2                !
 ! A63   A(6,32,31)            121.9248         estimate D2E/DX2                !
 ! A64   A(31,33,34)           107.4035         estimate D2E/DX2                !
 ! A65   A(31,33,35)           110.1796         estimate D2E/DX2                !
 ! A66   A(31,33,36)           110.8515         estimate D2E/DX2                !
 ! A67   A(34,33,35)           107.5304         estimate D2E/DX2                !
 ! A68   A(34,33,36)           109.0833         estimate D2E/DX2                !
 ! A69   A(35,33,36)           111.6363         estimate D2E/DX2                !
 ! D1    D(10,1,2,3)           -58.8394         estimate D2E/DX2                !
 ! D2    D(10,1,2,7)           179.0961         estimate D2E/DX2                !
 ! D3    D(10,1,2,13)           62.1496         estimate D2E/DX2                !
 ! D4    D(11,1,2,3)          -179.4838         estimate D2E/DX2                !
 ! D5    D(11,1,2,7)            58.4517         estimate D2E/DX2                !
 ! D6    D(11,1,2,13)          -58.4949         estimate D2E/DX2                !
 ! D7    D(12,1,2,3)            62.5462         estimate D2E/DX2                !
 ! D8    D(12,1,2,7)           -59.5184         estimate D2E/DX2                !
 ! D9    D(12,1,2,13)         -176.4649         estimate D2E/DX2                !
 ! D10   D(2,1,10,19)         -175.4608         estimate D2E/DX2                !
 ! D11   D(11,1,10,19)         -57.237          estimate D2E/DX2                !
 ! D12   D(12,1,10,19)          64.0233         estimate D2E/DX2                !
 ! D13   D(1,2,3,4)            177.024          estimate D2E/DX2                !
 ! D14   D(1,2,3,9)            -59.8476         estimate D2E/DX2                !
 ! D15   D(1,2,3,14)            51.5392         estimate D2E/DX2                !
 ! D16   D(7,2,3,4)            -62.6557         estimate D2E/DX2                !
 ! D17   D(7,2,3,9)             60.4727         estimate D2E/DX2                !
 ! D18   D(7,2,3,14)           171.8595         estimate D2E/DX2                !
 ! D19   D(13,2,3,4)            55.2567         estimate D2E/DX2                !
 ! D20   D(13,2,3,9)           178.385          estimate D2E/DX2                !
 ! D21   D(13,2,3,14)          -70.2281         estimate D2E/DX2                !
 ! D22   D(1,2,7,6)            150.2856         estimate D2E/DX2                !
 ! D23   D(3,2,7,6)             25.5898         estimate D2E/DX2                !
 ! D24   D(13,2,7,6)           -92.0876         estimate D2E/DX2                !
 ! D25   D(2,3,4,5)             37.0708         estimate D2E/DX2                !
 ! D26   D(2,3,4,8)            161.9333         estimate D2E/DX2                !
 ! D27   D(2,3,4,15)           -78.4826         estimate D2E/DX2                !
 ! D28   D(9,3,4,5)            -85.8695         estimate D2E/DX2                !
 ! D29   D(9,3,4,8)             38.993          estimate D2E/DX2                !
 ! D30   D(9,3,4,15)           158.5772         estimate D2E/DX2                !
 ! D31   D(14,3,4,5)           161.5275         estimate D2E/DX2                !
 ! D32   D(14,3,4,8)           -73.61           estimate D2E/DX2                !
 ! D33   D(14,3,4,15)           45.9742         estimate D2E/DX2                !
 ! D34   D(2,3,9,31)           -76.2888         estimate D2E/DX2                !
 ! D35   D(4,3,9,31)            47.7874         estimate D2E/DX2                !
 ! D36   D(14,3,9,31)          166.8891         estimate D2E/DX2                !
 ! D37   D(3,4,5,6)             17.2521         estimate D2E/DX2                !
 ! D38   D(3,4,5,16)           135.5363         estimate D2E/DX2                !
 ! D39   D(3,4,5,18)           -98.8766         estimate D2E/DX2                !
 ! D40   D(8,4,5,6)           -104.1354         estimate D2E/DX2                !
 ! D41   D(8,4,5,16)            14.1488         estimate D2E/DX2                !
 ! D42   D(8,4,5,18)           139.7359         estimate D2E/DX2                !
 ! D43   D(15,4,5,6)           131.92           estimate D2E/DX2                !
 ! D44   D(15,4,5,16)         -109.7958         estimate D2E/DX2                !
 ! D45   D(15,4,5,18)           15.7913         estimate D2E/DX2                !
 ! D46   D(3,4,8,27)           156.2304         estimate D2E/DX2                !
 ! D47   D(5,4,8,27)           -81.1167         estimate D2E/DX2                !
 ! D48   D(15,4,8,27)           40.4032         estimate D2E/DX2                !
 ! D49   D(4,5,6,7)            -57.5228         estimate D2E/DX2                !
 ! D50   D(4,5,6,17)           171.3318         estimate D2E/DX2                !
 ! D51   D(4,5,6,32)            64.4824         estimate D2E/DX2                !
 ! D52   D(16,5,6,7)          -176.4434         estimate D2E/DX2                !
 ! D53   D(16,5,6,17)           52.4112         estimate D2E/DX2                !
 ! D54   D(16,5,6,32)          -54.4382         estimate D2E/DX2                !
 ! D55   D(18,5,6,7)            64.0499         estimate D2E/DX2                !
 ! D56   D(18,5,6,17)          -67.0955         estimate D2E/DX2                !
 ! D57   D(18,5,6,32)         -173.9449         estimate D2E/DX2                !
 ! D58   D(4,5,18,23)          -87.1668         estimate D2E/DX2                !
 ! D59   D(6,5,18,23)          153.6762         estimate D2E/DX2                !
 ! D60   D(16,5,18,23)          36.8525         estimate D2E/DX2                !
 ! D61   D(5,6,7,2)             34.0759         estimate D2E/DX2                !
 ! D62   D(17,6,7,2)           167.7046         estimate D2E/DX2                !
 ! D63   D(32,6,7,2)           -84.8224         estimate D2E/DX2                !
 ! D64   D(5,6,32,31)          -78.8494         estimate D2E/DX2                !
 ! D65   D(7,6,32,31)           47.9515         estimate D2E/DX2                !
 ! D66   D(17,6,32,31)         162.4808         estimate D2E/DX2                !
 ! D67   D(4,8,27,28)          -60.4131         estimate D2E/DX2                !
 ! D68   D(4,8,27,29)           62.0229         estimate D2E/DX2                !
 ! D69   D(4,8,27,30)         -179.1011         estimate D2E/DX2                !
 ! D70   D(3,9,31,32)           14.3896         estimate D2E/DX2                !
 ! D71   D(3,9,31,33)         -165.4338         estimate D2E/DX2                !
 ! D72   D(1,10,19,20)         179.5326         estimate D2E/DX2                !
 ! D73   D(1,10,19,21)         -61.3721         estimate D2E/DX2                !
 ! D74   D(1,10,19,22)          60.5413         estimate D2E/DX2                !
 ! D75   D(5,18,23,24)         -59.3795         estimate D2E/DX2                !
 ! D76   D(5,18,23,25)          63.0904         estimate D2E/DX2                !
 ! D77   D(5,18,23,26)        -178.1318         estimate D2E/DX2                !
 ! D78   D(9,31,32,6)            6.4754         estimate D2E/DX2                !
 ! D79   D(33,31,32,6)        -173.705          estimate D2E/DX2                !
 ! D80   D(9,31,33,34)          83.6197         estimate D2E/DX2                !
 ! D81   D(9,31,33,35)         -33.2206         estimate D2E/DX2                !
 ! D82   D(9,31,33,36)        -157.3003         estimate D2E/DX2                !
 ! D83   D(32,31,33,34)        -96.2183         estimate D2E/DX2                !
 ! D84   D(32,31,33,35)        146.9414         estimate D2E/DX2                !
 ! D85   D(32,31,33,36)         22.8617         estimate D2E/DX2                !
 --------------------------------------------------------------------------------
 Trust Radius=3.00D-01 FncErr=1.00D-07 GrdErr=1.00D-06
 Number of steps in this run=    216 maximum allowed number of steps=    216.
 GradGradGradGradGradGradGradGradGradGradGradGradGradGradGradGradGradGrad

 Leave Link  103 at Mon Jan  9 13:24:47 2017, MaxMem= 13421772800 cpu:         0.2
 (Enter /share/apps//g09/l202.exe)
                          Input orientation:                          
 ---------------------------------------------------------------------
 Center     Atomic      Atomic             Coordinates (Angstroms)
 Number     Number       Type             X           Y           Z
 ---------------------------------------------------------------------
      1          6           0       -0.914640   -1.436660    2.943140
      2          6           0        0.221860   -1.095280    1.982760
      3          6           0        0.526670    0.387820    1.877240
      4          6           0        1.722640    0.664460    0.956220
      5          6           0        1.710680   -0.324040   -0.256180
      6          6           0        0.326930   -0.954030   -0.389580
      7          8           0       -0.155190   -1.624870    0.671800
      8          8           0        1.677800    2.026400    0.583270
      9          8           0       -0.684880    1.128000    1.395480
     10          8           0       -0.519260   -0.935650    4.201940
     11          1           0       -1.048530   -2.534380    2.953340
     12          1           0       -1.865320   -0.983760    2.597900
     13          1           0        1.141850   -1.607370    2.310530
     14          1           0        0.667690    0.817390    2.875610
     15          1           0        2.624600    0.435350    1.556480
     16          1           0        1.924320    0.236990   -1.184020
     17          1           0        0.173940   -1.547140   -1.296410
     18          8           0        2.583040   -1.423130   -0.087420
     19          6           0       -1.444290   -1.270780    5.244520
     20          1           0       -1.039050   -0.844400    6.167980
     21          1           0       -2.439890   -0.838780    5.046670
     22          1           0       -1.536070   -2.364070    5.355210
     23          6           0        3.927810   -1.168230   -0.526090
     24          1           0        3.946650   -0.902660   -1.595560
     25          1           0        4.405520   -0.366150    0.061120
     26          1           0        4.478760   -2.101450   -0.371290
     27          6           0        2.953240    2.563010    0.195640
     28          1           0        3.672940    2.493480    1.027200
     29          1           0        3.364920    2.051560   -0.690180
     30          1           0        2.780110    3.615830   -0.049490
     31          6           0       -1.058140    1.107960    0.151560
     32          8           0       -0.643790    0.294680   -0.746170
     33          6           0       -2.053720    2.134110   -0.239820
     34          1           0       -1.501770    3.061430   -0.460280
     35          1           0       -2.729620    2.343310    0.596620
     36          1           0       -2.602010    1.823550   -1.133150
 ---------------------------------------------------------------------
                    Distance matrix (angstroms):
                    1          2          3          4          5
     1  C    0.000000
     2  C    1.526598   0.000000
     3  C    2.557781   1.517771   0.000000
     4  C    3.913796   2.530377   1.534650   0.000000
     5  C    4.285543   2.797186   2.541674   1.564349   0.000000
     6  C    3.589074   2.378863   2.641767   2.525608   1.526253
     7  O    2.402327   1.463301   2.443141   2.974588   2.456578
     8  O    4.927729   3.717959   2.384199   1.412793   2.496062
     9  O    3.004251   2.471851   1.499271   2.490777   3.251939
    10  O    1.411352   2.345101   2.872242   4.256896   5.022104
    11  H    1.105902   2.151029   3.489771   4.679792   4.774920
    12  H    1.108197   2.178797   2.849947   4.276120   4.622638
    13  H    2.158353   1.102747   2.132362   2.707893   2.925492
    14  H    2.754827   2.157372   1.095974   2.195533   3.492678
    15  H    4.237153   2.880573   2.122842   1.107400   2.167408
    16  H    5.281501   3.834294   3.368603   2.191810   1.105117
    17  H    4.378470   3.310503   3.733704   3.516246   2.222526
    18  O    4.627985   3.157262   3.371659   2.487470   1.413326
    19  C    2.367360   3.666870   4.239600   5.671342   6.411541
    20  H    3.281134   4.378230   4.730782   6.088188   7.007255
    21  H    2.666212   4.066725   4.511132   6.026456   6.753696
    22  H    2.657884   4.009185   4.891224   6.256381   6.796382
    23  C    5.962963   4.475904   4.445789   3.227812   2.387713
    24  H    6.672113   5.168707   5.042018   3.730103   2.669888
    25  H    6.144602   4.661260   4.348821   3.010184   2.713782
    26  H    6.365230   4.967406   5.183760   4.124165   3.291611
    27  C    6.205370   4.902787   3.667080   2.386912   3.175398
    28  H    6.337406   5.069738   3.880127   2.674700   3.665508
    29  H    6.609336   5.189030   4.173169   2.707723   2.927173
    30  H    6.937915   5.733170   4.382959   3.292458   4.087662
    31  C    3.780027   3.137827   2.451162   2.928636   3.143762
    32  O    4.084349   3.182514   2.874184   2.938513   2.483230
    33  C    4.917228   4.532889   3.766946   4.225077   4.495940
    34  H    5.671050   5.120311   4.089836   4.260136   4.671499
    35  H    4.805048   4.738831   4.008410   4.771841   5.249599
    36  H    5.485647   5.118858   4.573009   4.940805   4.896990
                    6          7          8          9         10
     6  C    0.000000
     7  O    1.344988   0.000000
     8  O    3.413832   4.086498   0.000000
     9  O    2.923191   2.895268   2.655007   0.000000
    10  O    4.668879   3.615171   5.166777   3.487449   0.000000
    11  H    3.945188   2.613559   5.818146   3.996523   2.096441
    12  H    3.705655   2.654322   5.066902   2.701626   2.094549
    13  H    2.895089   2.089989   4.058935   3.414163   2.605365
    14  H    3.730350   3.390950   2.781519   2.028967   2.498230
    15  H    3.316144   3.571330   2.091652   3.385017   4.331507
    16  H    2.145068   3.351858   2.527068   3.775665   6.029489
    17  H    1.094315   1.997053   4.308710   3.891043   5.575509
    18  O    2.324089   2.848687   3.628849   4.403017   5.316062
    19  C    5.914443   4.764129   6.507388   4.598473   1.433515
    20  H    6.699217   5.621240   6.841911   5.176152   2.035638
    21  H    6.100933   4.997727   6.714653   4.503273   2.100422
    22  H    6.201741   4.938378   7.237168   5.347760   2.098647
    23  C    3.609827   4.279527   4.061882   5.499274   6.494982
    24  H    3.815678   4.742109   4.298183   5.875455   7.318227
    25  H    4.145314   4.770470   3.665705   5.470391   6.459426
    26  H    4.307505   4.773747   5.078947   6.341451   6.874135
    27  C    4.428268   5.237118   1.436995   4.090817   6.352111
    28  H    5.008830   5.633977   2.096621   4.581568   6.277933
    29  H    4.284077   5.268994   2.113926   4.647991   6.924097
    30  H    5.197824   6.049891   2.035132   4.503709   7.048154
    31  C    2.542254   2.924778   2.918094   1.298869   4.568623
    32  O    1.621336   2.435989   3.186855   2.298429   5.100295
    33  C    3.902119   4.308758   3.822737   2.358005   5.613130
    34  H    4.412829   5.005626   3.502849   2.801661   6.219186
    35  H    4.602992   4.730729   4.418819   2.509207   5.351224
    36  H    4.104453   4.597431   4.615628   3.248561   6.357218
                   11         12         13         14         15
    11  H    0.000000
    12  H    1.788269   0.000000
    13  H    2.463801   3.084565   0.000000
    14  H    3.766406   3.120481   2.534483   0.000000
    15  H    4.925688   4.822635   2.634358   2.390723   0.000000
    16  H    5.799662   5.491313   4.028126   4.289123   2.835503
    17  H    4.530944   4.431888   3.735036   4.820845   4.251468
    18  O    4.865121   5.214585   2.803772   4.179479   2.481548
    19  C    2.646284   2.695226   3.925520   3.799033   5.750512
    20  H    3.631808   3.667099   4.496484   4.063768   6.027107
    21  H    3.031992   2.519449   4.572314   4.136841   6.281233
    22  H    2.456762   3.101035   4.124794   4.596375   6.291127
    23  C    6.223886   6.584353   4.000104   5.112987   2.933756
    24  H    6.950311   7.167334   4.860150   5.805300   3.670619
    25  H    6.543151   6.792653   4.153554   4.826333   2.459711
    26  H    6.464637   7.093143   4.309436   5.795364   3.686402
    27  C    7.042901   6.447399   5.014575   3.931052   2.546925
    28  H    7.161122   6.725371   4.987015   3.906075   2.369610
    29  H    7.333800   6.883317   5.228199   4.638220   2.864907
    30  H    7.842229   7.053008   5.961158   4.566158   3.566339
    31  C    4.595292   3.318345   4.107813   3.237803   3.998597
    32  O    4.674802   3.782770   4.018671   3.887222   4.000545
    33  C    5.744691   4.220102   5.542078   4.341167   5.291423
    34  H    6.570488   5.084112   6.038527   4.568417   5.290609
    35  H    5.672041   3.977629   5.790824   4.366227   5.764487
    36  H    6.172864   4.726990   6.135685   5.270052   6.039757
                   16         17         18         19         20
    16  H    0.000000
    17  H    2.501916   0.000000
    18  O    2.095815   2.698295   0.000000
    19  C    7.412626   6.743798   6.683725   0.000000
    20  H    8.000179   7.594887   7.251517   1.094896   0.000000
    21  H    7.682780   6.896995   7.206259   1.103172   1.794358
    22  H    7.842279   6.916325   6.890186   1.102705   1.793606
    23  C    2.534065   3.850780   1.437293   7.884790   8.341771
    24  H    2.357538   3.839035   2.098763   8.716905   9.226763
    25  H    2.840863   4.598249   2.112038   7.868054   8.195475
    26  H    3.557245   4.437858   2.033336   8.204258   8.648032
    27  C    2.893528   5.181125   4.013288   7.715401   7.950954
    28  H    3.610943   5.828274   4.215459   7.625056   7.731230
    29  H    2.368939   4.847732   3.612219   8.329892   8.649618
    30  H    3.665528   5.916349   5.042955   8.351710   8.551992
    31  C    3.381927   3.265608   4.440914   5.634337   6.325297
    32  O    2.605807   2.088958   3.714466   6.243383   7.018490
    33  C    4.507259   4.430627   5.846086   6.484032   7.138696
    34  H    4.498817   4.974539   6.077497   7.163525   7.707363
    35  H    5.409845   5.210549   6.548155   6.026333   6.637739
    36  H    4.796605   4.369680   6.206386   7.182609   7.928890
                   21         22         23         24         25
    21  H    0.000000
    22  H    1.799610   0.000000
    23  C    8.468282   8.116262   0.000000
    24  H    9.214727   8.972689   1.102111   0.000000
    25  H    8.481670   8.204972   1.102885   1.800831   0.000000
    26  H    8.877857   8.309028   1.094718   1.794178   1.789863
    27  C    8.011899   8.429186   3.923370   4.025684   3.272184
    28  H    8.039079   8.334341   3.985698   4.299716   3.106037
    29  H    8.658021   8.947862   3.272739   3.144128   2.737265
    30  H    8.547678   9.143271   4.942832   4.916086   4.302366
    31  C    5.446203   6.273865   5.522676   5.669475   5.659749
    32  O    6.169903   6.715054   4.805004   4.819463   5.155962
    33  C    6.077350   7.197635   6.838574   6.860353   6.932795
    34  H    6.813091   7.953436   6.882928   6.832873   6.849543
    35  H    5.478374   6.799130   7.610044   7.740449   7.651023
    36  H    6.730859   7.795589   7.208177   7.108515   7.438181
                   26         27         28         29         30
    26  H    0.000000
    27  C    4.940223   0.000000
    28  H    4.870164   1.101950   0.000000
    29  H    4.311592   1.102605   1.799879   0.000000
    30  H    5.972961   1.094757   1.793342   1.788694   0.000000
    31  C    6.421133   4.267351   5.006948   4.600257   4.589335
    32  O    5.667671   4.355566   5.158849   4.377159   4.820632
    33  C    7.786562   5.044128   5.876149   5.437950   5.059410
    34  H    7.901265   4.530537   5.414129   4.975677   4.337119
    35  H    8.523701   5.701224   6.418779   6.235735   5.691563
    36  H    8.131627   5.759626   6.670151   5.987693   5.775275
                   31         32         33         34         35
    31  C    0.000000
    32  O    1.280246   0.000000
    33  C    1.482343   2.372298   0.000000
    34  H    2.094565   2.910802   1.101442   0.000000
    35  H    2.125562   3.217244   1.095553   1.772103   0.000000
    36  H    2.132155   2.514323   1.093210   1.787632   1.810674
                   36
    36  H    0.000000
 Stoichiometry    C11H19O6(1+)
 Framework group  C1[X(C11H19O6)]
 Deg. of freedom   102
 Full point group                 C1      NOp   1
 Largest Abelian subgroup         C1      NOp   1
 Largest concise Abelian subgroup C1      NOp   1
                         Standard orientation:                         
 ---------------------------------------------------------------------
 Center     Atomic      Atomic             Coordinates (Angstroms)
 Number     Number       Type             X           Y           Z
 ---------------------------------------------------------------------
      1          6           0       -2.634887   -0.709763   -0.413954
      2          6           0       -1.123621   -0.887576   -0.291646
      3          6           0       -0.470576    0.009552    0.743884
      4          6           0        1.033862   -0.264002    0.874215
      5          6           0        1.647405   -0.587822   -0.527888
      6          6           0        0.692659   -0.123237   -1.624276
      7          8           0       -0.555647   -0.623863   -1.614185
      8          8           0        1.624140    0.849530    1.512652
      9          8           0       -0.711211    1.449122    0.401036
     10          8           0       -3.160773   -0.989351    0.865572
     11          1           0       -3.010289   -1.410710   -1.182568
     12          1           0       -2.880235    0.318608   -0.746159
     13          1           0       -0.900590   -1.933400   -0.022274
     14          1           0       -0.990275   -0.080438    1.704600
     15          1           0        1.121307   -1.180649    1.489396
     16          1           0        2.598579   -0.037256   -0.643770
     17          1           0        1.096574   -0.170403   -2.640226
     18          8           0        1.803812   -1.972982   -0.761043
     19          6           0       -4.593879   -0.965709    0.890361
     20          1           0       -4.890535   -1.201516    1.917584
     21          1           0       -4.979854    0.030741    0.616321
     22          1           0       -5.013621   -1.720969    0.205265
     23          6           0        3.050100   -2.504259   -0.281123
     24          1           0        3.902428   -1.997834   -0.762496
     25          1           0        3.139251   -2.414578    0.814488
     26          1           0        3.052657   -3.564273   -0.554567
     27          6           0        2.861403    0.547006    2.177944
     28          1           0        2.705759   -0.212176    2.961342
     29          1           0        3.633989    0.195536    1.474155
     30          1           0        3.197563    1.481821    2.637955
     31          6           0       -0.058292    2.052921   -0.545635
     32          8           0        0.647067    1.488350   -1.452695
     33          6           0       -0.151920    3.532292   -0.551742
     34          1           0        0.600129    3.912916    0.157287
     35          1           0       -1.136295    3.850167   -0.190913
     36          1           0        0.060817    3.931555   -1.546950
 ---------------------------------------------------------------------
 Rotational constants (GHZ):      0.5854208      0.3702882      0.3122815
 Leave Link  202 at Mon Jan  9 13:24:47 2017, MaxMem= 13421772800 cpu:         0.6
 (Enter /share/apps//g09/l301.exe)
 Standard basis: 6-311+G(d,p) (5D, 7F)
 Ernie: Thresh=  0.10000D-02 Tol=  0.10000D-05 Strict=F.
 There are   505 symmetry adapted cartesian basis functions of A   symmetry.
 There are   488 symmetry adapted basis functions of A   symmetry.
   488 basis functions,   764 primitive gaussians,   505 cartesian basis functions
    66 alpha electrons       66 beta electrons
       nuclear repulsion energy      1433.6429353142 Hartrees.
 IExCor= 1009 DFT=T Ex+Corr=PBE1PBE ExCW=0 ScaHFX=  0.250000
 ScaDFX=  0.750000  0.750000  1.000000  1.000000 ScalE2=  1.000000  1.000000
 IRadAn=      0 IRanWt=     -1 IRanGd=            0 ICorTp=0 IEmpDi=131
 NAtoms=   36 NActive=   36 NUniq=   36 SFac= 1.00D+00 NAtFMM=   60 NAOKFM=F Big=F
 Integral buffers will be    131072 words long.
 Raffenetti 2 integral format.
 Two-electron integral symmetry is turned on.
 R6Disp:  Grimme-D3 Dispersion energy=       -0.0245616821 Hartrees.
 Nuclear repulsion after empirical dispersion term =     1433.6183736321 Hartrees.
 Leave Link  301 at Mon Jan  9 13:24:47 2017, MaxMem= 13421772800 cpu:         2.0
 (Enter /share/apps//g09/l302.exe)
 NPDir=0 NMtPBC=     1 NCelOv=     1 NCel=       1 NClECP=     1 NCelD=      1
         NCelK=      1 NCelE2=     1 NClLst=     1 CellRange=     0.0.
 One-electron integrals computed using PRISM.
 NBasis=   488 RedAO= T EigKep=  1.48D-06  NBF=   488
 NBsUse=   488 1.00D-06 EigRej= -1.00D+00 NBFU=   488
 Precomputing XC quadrature grid using
 IXCGrd= 4 IRadAn=           0 IRanWt=          -1 IRanGd=           0 AccXCQ= 0.00D+00.
 Generated NRdTot=       0 NPtTot=           0 NUsed=           0 NTot=          32
 NSgBfM=   503   503   504   504   505 MxSgAt=    36 MxSgA2=    36.
 Leave Link  302 at Mon Jan  9 13:24:48 2017, MaxMem= 13421772800 cpu:        12.0
 (Enter /share/apps//g09/l303.exe)
 DipDrv:  MaxL=1.
 Leave Link  303 at Mon Jan  9 13:24:49 2017, MaxMem= 13421772800 cpu:         6.6
 (Enter /share/apps//g09/l401.exe)
 ExpMin= 4.38D-02 ExpMax= 8.59D+03 ExpMxC= 1.30D+03 IAcc=2 IRadAn=         4 AccDes= 0.00D+00
 Harris functional with IExCor= 1009 and IRadAn=       4 diagonalized for initial guess.
 HarFok:  IExCor= 1009 AccDes= 0.00D+00 IRadAn=         4 IDoV= 1 UseB2=F ITyADJ=14
 ICtDFT=  3500011 ScaDFX=  1.000000  1.000000  1.000000  1.000000
 FoFCou: FMM=F IPFlag=           0 FMFlag=      100000 FMFlg1=           0
         NFxFlg=           0 DoJE=T BraDBF=F KetDBF=T FulRan=T
         wScrn=  0.000000 ICntrl=     500 IOpCl=  0 I1Cent=   200000004 NGrid=           0
         NMat0=    1 NMatS0=      1 NMatT0=    0 NMatD0=    1 NMtDS0=    0 NMtDT0=    0
 Petite list used in FoFCou.
 Harris En= -881.103164632761    
 JPrj=0 DoOrth=F DoCkMO=F.
 Leave Link  401 at Mon Jan  9 13:24:50 2017, MaxMem= 13421772800 cpu:        23.4
 (Enter /share/apps//g09/l502.exe)
 Closed shell SCF:
 Using DIIS extrapolation, IDIIS=  1040.
 Integral symmetry usage will be decided dynamically.
 Keep R1 ints in memory in canonical form, NReq=7183787934.
 IVT=      797493 IEndB=      797493 NGot= 13421772800 MDV=  6302761722
 LenX=  6302761722 LenY=  6302506192
 Requested convergence on RMS density matrix=1.00D-08 within 128 cycles.
 Requested convergence on MAX density matrix=1.00D-06.
 Requested convergence on             energy=1.00D-06.
 No special actions if energy rises.
 FoFCou: FMM=F IPFlag=           0 FMFlag=           0 FMFlg1=           0
         NFxFlg=           0 DoJE=F BraDBF=F KetDBF=F FulRan=T
         wScrn=  0.000000 ICntrl=     600 IOpCl=  0 I1Cent=           0 NGrid=           0
         NMat0=    1 NMatS0= 119316 NMatT0=    0 NMatD0=    1 NMtDS0=    0 NMtDT0=    0
 Symmetry not used in FoFCou.

 Cycle   1  Pass 1  IDiag  1:
 E= -880.655345318317    
 DIIS: error= 1.84D-02 at cycle   1 NSaved=   1.
 NSaved= 1 IEnMin= 1 EnMin= -880.655345318317     IErMin= 1 ErrMin= 1.84D-02
 ErrMax= 1.84D-02  0.00D+00 EMaxC= 1.00D-01 BMatC= 3.68D-01 BMatP= 3.68D-01
 IDIUse=3 WtCom= 8.16D-01 WtEn= 1.84D-01
 Coeff-Com:  0.100D+01
 Coeff-En:   0.100D+01
 Coeff:      0.100D+01
 Gap=     0.109 Goal=   None    Shift=    0.000
 GapD=    0.109 DampG=1.000 DampE=0.500 DampFc=0.5000 IDamp=-1.
 Damping current iteration by 5.00D-01
 RMSDP=2.10D-02 MaxDP=2.86D+00              OVMax= 1.21D-01

 Cycle   2  Pass 1  IDiag  1:
 E= -880.780786684959     Delta-E=       -0.125441366642 Rises=F Damp=T
 DIIS: error= 3.13D-03 at cycle   2 NSaved=   2.
 NSaved= 2 IEnMin= 2 EnMin= -880.780786684959     IErMin= 2 ErrMin= 3.13D-03
 ErrMax= 3.13D-03  0.00D+00 EMaxC= 1.00D-01 BMatC= 2.81D-02 BMatP= 3.68D-01
 IDIUse=3 WtCom= 9.69D-01 WtEn= 3.13D-02
 Coeff-Com: -0.184D-01 0.102D+01
 Coeff-En:   0.318D-01 0.968D+00
 Coeff:     -0.169D-01 0.102D+01
 Gap=     0.227 Goal=   None    Shift=    0.000
 RMSDP=7.40D-03 MaxDP=1.45D+00 DE=-1.25D-01 OVMax= 7.83D-02

 Cycle   3  Pass 1  IDiag  1:
 E= -880.913958717666     Delta-E=       -0.133172032706 Rises=F Damp=F
 DIIS: error= 4.36D-03 at cycle   3 NSaved=   3.
 NSaved= 3 IEnMin= 3 EnMin= -880.913958717666     IErMin= 2 ErrMin= 3.13D-03
 ErrMax= 4.36D-03  0.00D+00 EMaxC= 1.00D-01 BMatC= 1.77D-02 BMatP= 2.81D-02
 IDIUse=3 WtCom= 9.56D-01 WtEn= 4.36D-02
 Coeff-Com: -0.936D-01 0.460D+00 0.633D+00
 Coeff-En:   0.000D+00 0.000D+00 0.100D+01
 Coeff:     -0.895D-01 0.440D+00 0.649D+00
 Gap=     0.195 Goal=   None    Shift=    0.000
 RMSDP=1.49D-03 MaxDP=2.33D-01 DE=-1.33D-01 OVMax= 1.78D-02

 Cycle   4  Pass 1  IDiag  1:
 E= -880.924841398466     Delta-E=       -0.010882680801 Rises=F Damp=F
 DIIS: error= 1.87D-03 at cycle   4 NSaved=   4.
 NSaved= 4 IEnMin= 4 EnMin= -880.924841398466     IErMin= 4 ErrMin= 1.87D-03
 ErrMax= 1.87D-03  0.00D+00 EMaxC= 1.00D-01 BMatC= 3.37D-03 BMatP= 1.77D-02
 IDIUse=3 WtCom= 9.81D-01 WtEn= 1.87D-02
 Coeff-Com: -0.458D-01 0.147D+00 0.359D+00 0.540D+00
 Coeff-En:   0.000D+00 0.000D+00 0.120D+00 0.880D+00
 Coeff:     -0.450D-01 0.144D+00 0.354D+00 0.546D+00
 Gap=     0.197 Goal=   None    Shift=    0.000
 RMSDP=9.07D-04 MaxDP=1.43D-01 DE=-1.09D-02 OVMax= 5.76D-03

 Cycle   5  Pass 1  IDiag  1:
 E= -880.927296071032     Delta-E=       -0.002454672565 Rises=F Damp=F
 DIIS: error= 3.52D-04 at cycle   5 NSaved=   5.
 NSaved= 5 IEnMin= 5 EnMin= -880.927296071032     IErMin= 5 ErrMin= 3.52D-04
 ErrMax= 3.52D-04  0.00D+00 EMaxC= 1.00D-01 BMatC= 1.18D-04 BMatP= 3.37D-03
 IDIUse=3 WtCom= 9.96D-01 WtEn= 3.52D-03
 Coeff-Com: -0.133D-01 0.302D-01 0.110D+00 0.237D+00 0.636D+00
 Coeff-En:   0.000D+00 0.000D+00 0.000D+00 0.000D+00 0.100D+01
 Coeff:     -0.132D-01 0.301D-01 0.110D+00 0.236D+00 0.637D+00
 Gap=     0.199 Goal=   None    Shift=    0.000
 RMSDP=2.50D-04 MaxDP=2.87D-02 DE=-2.45D-03 OVMax= 1.65D-03

 Cycle   6  Pass 1  IDiag  1:
 E= -880.927363280901     Delta-E=       -0.000067209869 Rises=F Damp=F
 DIIS: error= 1.90D-04 at cycle   6 NSaved=   6.
 NSaved= 6 IEnMin= 6 EnMin= -880.927363280901     IErMin= 6 ErrMin= 1.90D-04
 ErrMax= 1.90D-04  0.00D+00 EMaxC= 1.00D-01 BMatC= 2.64D-05 BMatP= 1.18D-04
 IDIUse=3 WtCom= 9.98D-01 WtEn= 1.90D-03
 Coeff-Com: -0.569D-02 0.104D-01 0.481D-01 0.117D+00 0.408D+00 0.422D+00
 Coeff-En:   0.000D+00 0.000D+00 0.000D+00 0.000D+00 0.138D+00 0.862D+00
 Coeff:     -0.567D-02 0.104D-01 0.480D-01 0.117D+00 0.407D+00 0.423D+00
 Gap=     0.199 Goal=   None    Shift=    0.000
 RMSDP=8.39D-05 MaxDP=8.09D-03 DE=-6.72D-05 OVMax= 8.76D-04

 Cycle   7  Pass 1  IDiag  1:
 E= -880.927381934019     Delta-E=       -0.000018653117 Rises=F Damp=F
 DIIS: error= 4.91D-05 at cycle   7 NSaved=   7.
 NSaved= 7 IEnMin= 7 EnMin= -880.927381934019     IErMin= 7 ErrMin= 4.91D-05
 ErrMax= 4.91D-05  0.00D+00 EMaxC= 1.00D-01 BMatC= 1.38D-06 BMatP= 2.64D-05
 IDIUse=1 WtCom= 1.00D+00 WtEn= 0.00D+00
 Coeff-Com: -0.182D-02 0.279D-02 0.159D-01 0.429D-01 0.171D+00 0.239D+00
 Coeff-Com:  0.531D+00
 Coeff:     -0.182D-02 0.279D-02 0.159D-01 0.429D-01 0.171D+00 0.239D+00
 Coeff:      0.531D+00
 Gap=     0.199 Goal=   None    Shift=    0.000
 RMSDP=1.40D-05 MaxDP=1.83D-03 DE=-1.87D-05 OVMax= 2.06D-04

 Cycle   8  Pass 1  IDiag  1:
 E= -880.927382974916     Delta-E=       -0.000001040897 Rises=F Damp=F
 DIIS: error= 1.01D-05 at cycle   8 NSaved=   8.
 NSaved= 8 IEnMin= 8 EnMin= -880.927382974916     IErMin= 8 ErrMin= 1.01D-05
 ErrMax= 1.01D-05  0.00D+00 EMaxC= 1.00D-01 BMatC= 8.81D-08 BMatP= 1.38D-06
 IDIUse=1 WtCom= 1.00D+00 WtEn= 0.00D+00
 Coeff-Com: -0.438D-04-0.152D-03 0.410D-03 0.327D-02 0.197D-01 0.447D-01
 Coeff-Com:  0.232D+00 0.700D+00
 Coeff:     -0.438D-04-0.152D-03 0.410D-03 0.327D-02 0.197D-01 0.447D-01
 Coeff:      0.232D+00 0.700D+00
 Gap=     0.199 Goal=   None    Shift=    0.000
 RMSDP=9.80D-06 MaxDP=1.42D-03 DE=-1.04D-06 OVMax= 3.99D-05

 Cycle   9  Pass 1  IDiag  1:
 E= -880.927383036858     Delta-E=       -0.000000061942 Rises=F Damp=F
 DIIS: error= 3.92D-06 at cycle   9 NSaved=   9.
 NSaved= 9 IEnMin= 9 EnMin= -880.927383036858     IErMin= 9 ErrMin= 3.92D-06
 ErrMax= 3.92D-06  0.00D+00 EMaxC= 1.00D-01 BMatC= 1.16D-08 BMatP= 8.81D-08
 IDIUse=1 WtCom= 1.00D+00 WtEn= 0.00D+00
 Coeff-Com:  0.673D-04-0.213D-03-0.681D-03-0.684D-03-0.236D-03 0.806D-02
 Coeff-Com:  0.857D-01 0.354D+00 0.554D+00
 Coeff:      0.673D-04-0.213D-03-0.681D-03-0.684D-03-0.236D-03 0.806D-02
 Coeff:      0.857D-01 0.354D+00 0.554D+00
 Gap=     0.199 Goal=   None    Shift=    0.000
 RMSDP=1.31D-06 MaxDP=1.46D-04 DE=-6.19D-08 OVMax= 1.69D-05

 Cycle  10  Pass 1  IDiag  1:
 E= -880.927383044629     Delta-E=       -0.000000007771 Rises=F Damp=F
 DIIS: error= 1.10D-06 at cycle  10 NSaved=  10.
 NSaved=10 IEnMin=10 EnMin= -880.927383044629     IErMin=10 ErrMin= 1.10D-06
 ErrMax= 1.10D-06  0.00D+00 EMaxC= 1.00D-01 BMatC= 1.26D-09 BMatP= 1.16D-08
 IDIUse=1 WtCom= 1.00D+00 WtEn= 0.00D+00
 Coeff-Com:  0.456D-04-0.101D-03-0.468D-03-0.847D-03-0.294D-02-0.153D-02
 Coeff-Com:  0.179D-01 0.101D+00 0.289D+00 0.598D+00
 Coeff:      0.456D-04-0.101D-03-0.468D-03-0.847D-03-0.294D-02-0.153D-02
 Coeff:      0.179D-01 0.101D+00 0.289D+00 0.598D+00
 Gap=     0.199 Goal=   None    Shift=    0.000
 RMSDP=8.69D-07 MaxDP=1.49D-04 DE=-7.77D-09 OVMax= 4.37D-06

 Cycle  11  Pass 1  IDiag  1:
 E= -880.927383045554     Delta-E=       -0.000000000925 Rises=F Damp=F
 DIIS: error= 2.15D-07 at cycle  11 NSaved=  11.
 NSaved=11 IEnMin=11 EnMin= -880.927383045554     IErMin=11 ErrMin= 2.15D-07
 ErrMax= 2.15D-07  0.00D+00 EMaxC= 1.00D-01 BMatC= 5.67D-11 BMatP= 1.26D-09
 IDIUse=1 WtCom= 1.00D+00 WtEn= 0.00D+00
 Coeff-Com:  0.129D-04-0.261D-04-0.144D-03-0.285D-03-0.112D-02-0.106D-02
 Coeff-Com:  0.230D-02 0.186D-01 0.807D-01 0.252D+00 0.649D+00
 Coeff:      0.129D-04-0.261D-04-0.144D-03-0.285D-03-0.112D-02-0.106D-02
 Coeff:      0.230D-02 0.186D-01 0.807D-01 0.252D+00 0.649D+00
 Gap=     0.199 Goal=   None    Shift=    0.000
 RMSDP=1.50D-07 MaxDP=2.56D-05 DE=-9.25D-10 OVMax= 1.36D-06

 Cycle  12  Pass 1  IDiag  1:
 E= -880.927383045603     Delta-E=       -0.000000000050 Rises=F Damp=F
 DIIS: error= 1.02D-07 at cycle  12 NSaved=  12.
 NSaved=12 IEnMin=12 EnMin= -880.927383045603     IErMin=12 ErrMin= 1.02D-07
 ErrMax= 1.02D-07  0.00D+00 EMaxC= 1.00D-01 BMatC= 1.05D-11 BMatP= 5.67D-11
 IDIUse=1 WtCom= 1.00D+00 WtEn= 0.00D+00
 Coeff-Com:  0.145D-05-0.198D-05-0.235D-04-0.537D-04-0.250D-03-0.362D-03
 Coeff-Com: -0.833D-03-0.184D-02 0.942D-02 0.667D-01 0.352D+00 0.575D+00
 Coeff:      0.145D-05-0.198D-05-0.235D-04-0.537D-04-0.250D-03-0.362D-03
 Coeff:     -0.833D-03-0.184D-02 0.942D-02 0.667D-01 0.352D+00 0.575D+00
 Gap=     0.199 Goal=   None    Shift=    0.000
 RMSDP=5.34D-08 MaxDP=8.47D-06 DE=-4.96D-11 OVMax= 4.36D-07

 Cycle  13  Pass 1  IDiag  1:
 E= -880.927383045585     Delta-E=        0.000000000019 Rises=F Damp=F
 DIIS: error= 2.38D-08 at cycle  13 NSaved=  13.
 NSaved=13 IEnMin=12 EnMin= -880.927383045603     IErMin=13 ErrMin= 2.38D-08
 ErrMax= 2.38D-08  0.00D+00 EMaxC= 1.00D-01 BMatC= 4.89D-13 BMatP= 1.05D-11
 IDIUse=1 WtCom= 1.00D+00 WtEn= 0.00D+00
 Coeff-Com: -0.144D-06 0.704D-06-0.125D-05-0.541D-05-0.325D-04-0.711D-04
 Coeff-Com: -0.492D-03-0.179D-02-0.117D-02 0.909D-02 0.987D-01 0.240D+00
 Coeff-Com:  0.655D+00
 Coeff:     -0.144D-06 0.704D-06-0.125D-05-0.541D-05-0.325D-04-0.711D-04
 Coeff:     -0.492D-03-0.179D-02-0.117D-02 0.909D-02 0.987D-01 0.240D+00
 Coeff:      0.655D+00
 Gap=     0.199 Goal=   None    Shift=    0.000
 RMSDP=2.54D-08 MaxDP=4.20D-06 DE= 1.86D-11 OVMax= 1.69D-07

 Cycle  14  Pass 1  IDiag  1:
 E= -880.927383045598     Delta-E=       -0.000000000013 Rises=F Damp=F
 DIIS: error= 9.60D-09 at cycle  14 NSaved=  14.
 NSaved=14 IEnMin=12 EnMin= -880.927383045603     IErMin=14 ErrMin= 9.60D-09
 ErrMax= 9.60D-09  0.00D+00 EMaxC= 1.00D-01 BMatC= 1.08D-13 BMatP= 4.89D-13
 IDIUse=1 WtCom= 1.00D+00 WtEn= 0.00D+00
 Coeff-Com: -0.237D-06 0.618D-06 0.181D-05 0.244D-05 0.808D-05-0.310D-05
 Coeff-Com: -0.214D-03-0.900D-03-0.181D-02-0.234D-02 0.193D-01 0.758D-01
 Coeff-Com:  0.371D+00 0.540D+00
 Coeff:     -0.237D-06 0.618D-06 0.181D-05 0.244D-05 0.808D-05-0.310D-05
 Coeff:     -0.214D-03-0.900D-03-0.181D-02-0.234D-02 0.193D-01 0.758D-01
 Coeff:      0.371D+00 0.540D+00
 Gap=     0.199 Goal=   None    Shift=    0.000
 RMSDP=6.09D-09 MaxDP=9.02D-07 DE=-1.32D-11 OVMax= 4.53D-08

 SCF Done:  E(RPBE1PBE) =  -880.927383046     A.U. after   14 cycles
            NFock= 14  Conv=0.61D-08     -V/T= 2.0043
 KE= 8.771297782166D+02 PE=-4.910034387050D+03 EE= 1.718358852155D+03
 Leave Link  502 at Mon Jan  9 13:28:09 2017, MaxMem= 13421772800 cpu:       935.1
 (Enter /share/apps//g09/l601.exe)
 Copying SCF densities to generalized density rwf, IOpCl= 0 IROHF=0.

 **********************************************************************

            Population analysis using the SCF density.

 **********************************************************************

 Orbital symmetries:
       Occupied  (A) (A) (A) (A) (A) (A) (A) (A) (A) (A) (A) (A)
                 (A) (A) (A) (A) (A) (A) (A) (A) (A) (A) (A) (A)
                 (A) (A) (A) (A) (A) (A) (A) (A) (A) (A) (A) (A)
                 (A) (A) (A) (A) (A) (A) (A) (A) (A) (A) (A) (A)
                 (A) (A) (A) (A) (A) (A) (A) (A) (A) (A) (A) (A)
                 (A) (A) (A) (A) (A) (A)
       Virtual   (A) (A) (A) (A) (A) (A) (A) (A) (A) (A) (A) (A)
                 (A) (A) (A) (A) (A) (A) (A) (A) (A) (A) (A) (A)
                 (A) (A) (A) (A) (A) (A) (A) (A) (A) (A) (A) (A)
                 (A) (A) (A) (A) (A) (A) (A) (A) (A) (A) (A) (A)
                 (A) (A) (A) (A) (A) (A) (A) (A) (A) (A) (A) (A)
                 (A) (A) (A) (A) (A) (A) (A) (A) (A) (A) (A) (A)
                 (A) (A) (A) (A) (A) (A) (A) (A) (A) (A) (A) (A)
                 (A) (A) (A) (A) (A) (A) (A) (A) (A) (A) (A) (A)
                 (A) (A) (A) (A) (A) (A) (A) (A) (A) (A) (A) (A)
                 (A) (A) (A) (A) (A) (A) (A) (A) (A) (A) (A) (A)
                 (A) (A) (A) (A) (A) (A) (A) (A) (A) (A) (A) (A)
                 (A) (A) (A) (A) (A) (A) (A) (A) (A) (A) (A) (A)
                 (A) (A) (A) (A) (A) (A) (A) (A) (A) (A) (A) (A)
                 (A) (A) (A) (A) (A) (A) (A) (A) (A) (A) (A) (A)
                 (A) (A) (A) (A) (A) (A) (A) (A) (A) (A) (A) (A)
                 (A) (A) (A) (A) (A) (A) (A) (A) (A) (A) (A) (A)
                 (A) (A) (A) (A) (A) (A) (A) (A) (A) (A) (A) (A)
                 (A) (A) (A) (A) (A) (A) (A) (A) (A) (A) (A) (A)
                 (A) (A) (A) (A) (A) (A) (A) (A) (A) (A) (A) (A)
                 (A) (A) (A) (A) (A) (A) (A) (A) (A) (A) (A) (A)
                 (A) (A) (A) (A) (A) (A) (A) (A) (A) (A) (A) (A)
                 (A) (A) (A) (A) (A) (A) (A) (A) (A) (A) (A) (A)
                 (A) (A) (A) (A) (A) (A) (A) (A) (A) (A) (A) (A)
                 (A) (A) (A) (A) (A) (A) (A) (A) (A) (A) (A) (A)
                 (A) (A) (A) (A) (A) (A) (A) (A) (A) (A) (A) (A)
                 (A) (A) (A) (A) (A) (A) (A) (A) (A) (A) (A) (A)
                 (A) (A) (A) (A) (A) (A) (A) (A) (A) (A) (A) (A)
                 (A) (A) (A) (A) (A) (A) (A) (A) (A) (A) (A) (A)
                 (A) (A) (A) (A) (A) (A) (A) (A) (A) (A) (A) (A)
                 (A) (A) (A) (A) (A) (A) (A) (A) (A) (A) (A) (A)
                 (A) (A) (A) (A) (A) (A) (A) (A) (A) (A) (A) (A)
                 (A) (A) (A) (A) (A) (A) (A) (A) (A) (A) (A) (A)
                 (A) (A) (A) (A) (A) (A) (A) (A) (A) (A) (A) (A)
                 (A) (A) (A) (A) (A) (A) (A) (A) (A) (A) (A) (A)
                 (A) (A) (A) (A) (A) (A) (A) (A) (A) (A) (A) (A)
                 (A) (A)
 The electronic state is 1-A.
 Alpha  occ. eigenvalues --  -19.44919 -19.44131 -19.40647 -19.36380 -19.36049
 Alpha  occ. eigenvalues --  -19.33540 -10.57039 -10.51407 -10.46288 -10.44563
 Alpha  occ. eigenvalues --  -10.44531 -10.44366 -10.40630 -10.39641 -10.39314
 Alpha  occ. eigenvalues --  -10.38830 -10.36993  -1.35072  -1.27995  -1.25986
 Alpha  occ. eigenvalues --   -1.22192  -1.21039  -1.19028  -1.01040  -0.97984
 Alpha  occ. eigenvalues --   -0.94642  -0.89784  -0.86958  -0.85464  -0.82883
 Alpha  occ. eigenvalues --   -0.81146  -0.78550  -0.77140  -0.75925  -0.72378
 Alpha  occ. eigenvalues --   -0.71069  -0.68040  -0.67039  -0.66503  -0.65805
 Alpha  occ. eigenvalues --   -0.63669  -0.63582  -0.62973  -0.61498  -0.61014
 Alpha  occ. eigenvalues --   -0.60506  -0.59349  -0.58627  -0.57917  -0.57520
 Alpha  occ. eigenvalues --   -0.56883  -0.56449  -0.55199  -0.54524  -0.53812
 Alpha  occ. eigenvalues --   -0.52893  -0.52025  -0.51218  -0.49123  -0.48485
 Alpha  occ. eigenvalues --   -0.48008  -0.46748  -0.46185  -0.44434  -0.41007
 Alpha  occ. eigenvalues --   -0.39842
 Alpha virt. eigenvalues --   -0.19970  -0.12071  -0.11611  -0.09701  -0.09582
 Alpha virt. eigenvalues --   -0.08331  -0.07860  -0.07439  -0.07049  -0.06538
 Alpha virt. eigenvalues --   -0.06323  -0.05952  -0.05141  -0.04831  -0.04690
 Alpha virt. eigenvalues --   -0.04151  -0.03626  -0.03117  -0.02324  -0.02253
 Alpha virt. eigenvalues --   -0.01972  -0.01686  -0.01088  -0.01011  -0.00417
 Alpha virt. eigenvalues --    0.00006   0.00028   0.00319   0.01027   0.01466
 Alpha virt. eigenvalues --    0.02046   0.02432   0.02689   0.03050   0.03374
 Alpha virt. eigenvalues --    0.03599   0.03955   0.04627   0.05237   0.05547
 Alpha virt. eigenvalues --    0.05916   0.06300   0.06479   0.06616   0.07072
 Alpha virt. eigenvalues --    0.07619   0.07783   0.08140   0.08574   0.08960
 Alpha virt. eigenvalues --    0.09620   0.09878   0.10105   0.10256   0.10629
 Alpha virt. eigenvalues --    0.10947   0.11346   0.11650   0.11993   0.12498
 Alpha virt. eigenvalues --    0.12872   0.13130   0.13486   0.13991   0.14533
 Alpha virt. eigenvalues --    0.14619   0.14826   0.15353   0.16310   0.16475
 Alpha virt. eigenvalues --    0.17131   0.17575   0.17916   0.18143   0.18572
 Alpha virt. eigenvalues --    0.18888   0.19573   0.19951   0.20214   0.21118
 Alpha virt. eigenvalues --    0.21860   0.22534   0.22678   0.23233   0.23437
 Alpha virt. eigenvalues --    0.23796   0.24067   0.24687   0.25263   0.25426
 Alpha virt. eigenvalues --    0.26285   0.26942   0.27333   0.28214   0.28749
 Alpha virt. eigenvalues --    0.29218   0.29321   0.29698   0.31001   0.31287
 Alpha virt. eigenvalues --    0.32104   0.33022   0.33780   0.34165   0.34363
 Alpha virt. eigenvalues --    0.35225   0.35710   0.37040   0.37681   0.37820
 Alpha virt. eigenvalues --    0.38594   0.40345   0.41257   0.41705   0.42120
 Alpha virt. eigenvalues --    0.43611   0.44245   0.44573   0.44804   0.45744
 Alpha virt. eigenvalues --    0.46793   0.46929   0.48366   0.49017   0.49500
 Alpha virt. eigenvalues --    0.50666   0.51232   0.51315   0.52638   0.53492
 Alpha virt. eigenvalues --    0.54496   0.55124   0.55331   0.55847   0.56571
 Alpha virt. eigenvalues --    0.57001   0.57161   0.57765   0.57781   0.58844
 Alpha virt. eigenvalues --    0.59208   0.60409   0.60836   0.61088   0.61265
 Alpha virt. eigenvalues --    0.62394   0.63067   0.63237   0.63507   0.64163
 Alpha virt. eigenvalues --    0.65472   0.66031   0.66533   0.67799   0.68925
 Alpha virt. eigenvalues --    0.71380   0.72028   0.76512   0.78556   0.80042
 Alpha virt. eigenvalues --    0.82163   0.85104   0.88067   0.88670   0.90446
 Alpha virt. eigenvalues --    0.91712   0.93091   0.93905   0.95275   0.95712
 Alpha virt. eigenvalues --    0.96460   0.97541   0.99120   0.99672   1.00493
 Alpha virt. eigenvalues --    1.01156   1.02525   1.03697   1.04558   1.06560
 Alpha virt. eigenvalues --    1.07926   1.09244   1.09844   1.12662   1.13450
 Alpha virt. eigenvalues --    1.15281   1.16170   1.17086   1.19110   1.19913
 Alpha virt. eigenvalues --    1.20424   1.21132   1.22295   1.24663   1.25940
 Alpha virt. eigenvalues --    1.27084   1.27308   1.28641   1.29917   1.30908
 Alpha virt. eigenvalues --    1.31118   1.32656   1.33745   1.34329   1.34638
 Alpha virt. eigenvalues --    1.34979   1.36660   1.38043   1.39397   1.39766
 Alpha virt. eigenvalues --    1.40761   1.41698   1.42518   1.43840   1.45044
 Alpha virt. eigenvalues --    1.45241   1.45322   1.45783   1.46500   1.47155
 Alpha virt. eigenvalues --    1.47577   1.47973   1.48365   1.49413   1.50533
 Alpha virt. eigenvalues --    1.50832   1.51444   1.53083   1.54263   1.54766
 Alpha virt. eigenvalues --    1.55236   1.57611   1.58081   1.58209   1.59299
 Alpha virt. eigenvalues --    1.60322   1.60865   1.62372   1.62876   1.63498
 Alpha virt. eigenvalues --    1.65115   1.65636   1.67010   1.67608   1.67885
 Alpha virt. eigenvalues --    1.69677   1.70238   1.71602   1.73233   1.74586
 Alpha virt. eigenvalues --    1.76872   1.77517   1.79266   1.79829   1.79952
 Alpha virt. eigenvalues --    1.82037   1.82521   1.85950   1.86331   1.89073
 Alpha virt. eigenvalues --    1.89774   1.91806   1.92374   1.93257   1.95702
 Alpha virt. eigenvalues --    1.97283   1.99079   2.00189   2.01410   2.01830
 Alpha virt. eigenvalues --    2.03233   2.03442   2.05835   2.06448   2.06935
 Alpha virt. eigenvalues --    2.08686   2.09500   2.11224   2.12895   2.14665
 Alpha virt. eigenvalues --    2.16039   2.18561   2.19176   2.20515   2.21481
 Alpha virt. eigenvalues --    2.23827   2.32127   2.33108   2.33361   2.33833
 Alpha virt. eigenvalues --    2.34254   2.36604   2.39413   2.39661   2.40015
 Alpha virt. eigenvalues --    2.41176   2.41341   2.41985   2.42365   2.43193
 Alpha virt. eigenvalues --    2.43813   2.44637   2.45455   2.45838   2.47567
 Alpha virt. eigenvalues --    2.48194   2.48497   2.49010   2.50745   2.52811
 Alpha virt. eigenvalues --    2.55760   2.56833   2.57169   2.60745   2.61088
 Alpha virt. eigenvalues --    2.62343   2.67658   2.68949   2.69812   2.72371
 Alpha virt. eigenvalues --    2.72620   2.74150   2.75257   2.76671   2.77310
 Alpha virt. eigenvalues --    2.78472   2.79399   2.82391   2.83430   2.85757
 Alpha virt. eigenvalues --    2.87453   2.89092   2.91710   2.93188   2.93665
 Alpha virt. eigenvalues --    2.95805   2.96824   2.97630   2.98014   2.98634
 Alpha virt. eigenvalues --    3.00854   3.01670   3.02682   3.04495   3.06061
 Alpha virt. eigenvalues --    3.08188   3.08590   3.09838   3.10710   3.12858
 Alpha virt. eigenvalues --    3.13851   3.15702   3.16064   3.19656   3.20902
 Alpha virt. eigenvalues --    3.24804   3.27584   3.30730   3.35990   3.38922
 Alpha virt. eigenvalues --    3.48686   3.62329   3.65607   3.66922   3.67005
 Alpha virt. eigenvalues --    3.67694   3.69013   3.70645   3.70693   3.71467
 Alpha virt. eigenvalues --    3.72334   3.77675   3.82872   3.85576   3.88953
 Alpha virt. eigenvalues --    3.95028   3.95068   3.98059   3.99813   4.01902
 Alpha virt. eigenvalues --    4.04052   4.07723   4.09303   4.10011   4.12859
 Alpha virt. eigenvalues --    4.20253   4.24839   4.95177   4.95979   5.02636
 Alpha virt. eigenvalues --    5.03410   5.04123   5.05182   5.14138   5.21161
 Alpha virt. eigenvalues --    5.27893   5.31426   5.33103   5.33551   5.47374
 Alpha virt. eigenvalues --    5.57118   5.59479   5.61080   5.63869   5.81333
 Alpha virt. eigenvalues --   23.68377  23.72845  23.75816  23.77731  23.80625
 Alpha virt. eigenvalues --   23.82423  23.88683  23.89406  23.89891  23.90660
 Alpha virt. eigenvalues --   23.90956  49.89241  49.90068  49.95031  49.95794
 Alpha virt. eigenvalues --   49.97466  50.01356
          Condensed to atoms (all electrons):
               1          2          3          4          5          6
     1  C   11.008158  -5.913970   1.279335  -0.599028  -1.252535   1.424082
     2  C   -5.913970  20.649243  -7.485697   1.499935   1.915472  -3.492507
     3  C    1.279335  -7.485697  21.524313 -12.412609   4.505190  -2.416480
     4  C   -0.599028   1.499935 -12.412609  23.914063 -11.275108   6.024279
     5  C   -1.252535   1.915472   4.505190 -11.275108  21.914224 -11.245111
     6  C    1.424082  -3.492507  -2.416480   6.024279 -11.245111  17.175784
     7  O    0.008057  -0.176034  -0.060216   0.138941  -0.228287   0.452661
     8  O   -0.037546   0.080697   0.028546  -0.107537   0.156352  -0.122218
     9  O    0.047688  -0.143033  -0.266796   0.465077  -0.455860   0.430316
    10  O   -0.189267   0.148770  -0.017120   0.066944  -0.025386   0.031018
    11  H    0.371042  -0.060624   0.044842   0.002768   0.005313  -0.011879
    12  H    0.282647   0.082191  -0.061283   0.018315  -0.007355   0.012882
    13  H    0.068535   0.090798   0.035836   0.030969  -0.048218   0.065971
    14  H    0.004624  -0.065226   0.372045   0.026915   0.005457  -0.015944
    15  H    0.000803   0.011368   0.132827   0.316035  -0.103652  -0.013983
    16  H    0.002745  -0.013824  -0.041176   0.000843   0.268861   0.147935
    17  H   -0.024888  -0.001341   0.049105  -0.063375   0.148664   0.205976
    18  O    0.035559  -0.006134   0.015725  -0.047760   0.196228  -0.091605
    19  C    0.066766  -0.325593   0.084812  -0.048630   0.006416  -0.000165
    20  H    0.029556  -0.001525  -0.004017   0.000912  -0.000319   0.000156
    21  H   -0.010901  -0.009638   0.005751  -0.000273   0.000138   0.000667
    22  H   -0.005238   0.002050  -0.004624   0.001221  -0.000082  -0.000516
    23  C   -0.018042   0.076527  -0.004233  -0.000814  -0.093952  -0.212477
    24  H   -0.000598  -0.006523  -0.011508  -0.013916  -0.019686   0.041264
    25  H    0.003404   0.011651   0.035612   0.066221  -0.092617  -0.013808
    26  H   -0.001612  -0.000948  -0.004746  -0.008158   0.057028  -0.010155
    27  C   -0.016560  -0.034060  -0.357336   0.086165  -0.035105   0.079516
    28  H    0.001298  -0.001243   0.068598  -0.036309  -0.031992  -0.004986
    29  H   -0.001061  -0.003469  -0.027044  -0.098574   0.111930   0.009150
    30  H   -0.000200   0.001705  -0.008938   0.059038  -0.010297  -0.001383
    31  C   -0.240171   0.212249   0.116365  -0.809826   1.194440  -1.369773
    32  O   -0.100716   0.321050  -0.020329  -0.097415   0.012262   0.053899
    33  C    0.105698  -0.630495   0.811945  -0.534505   0.560140  -0.664565
    34  H    0.000414  -0.001824  -0.000710  -0.000428  -0.008643   0.006224
    35  H    0.005520  -0.010790   0.006149  -0.004681  -0.003796   0.005688
    36  H   -0.002032   0.003516  -0.010406   0.007759   0.005375  -0.008773
               7          8          9         10         11         12
     1  C    0.008057  -0.037546   0.047688  -0.189267   0.371042   0.282647
     2  C   -0.176034   0.080697  -0.143033   0.148770  -0.060624   0.082191
     3  C   -0.060216   0.028546  -0.266796  -0.017120   0.044842  -0.061283
     4  C    0.138941  -0.107537   0.465077   0.066944   0.002768   0.018315
     5  C   -0.228287   0.156352  -0.455860  -0.025386   0.005313  -0.007355
     6  C    0.452661  -0.122218   0.430316   0.031018  -0.011879   0.012882
     7  O    7.749832  -0.005214   0.044931   0.019414  -0.003090   0.009970
     8  O   -0.005214   7.996849   0.016138  -0.000728   0.000092  -0.000168
     9  O    0.044931   0.016138   7.885389   0.006595  -0.001945   0.015583
    10  O    0.019414  -0.000728   0.006595   8.119236  -0.039170  -0.046530
    11  H   -0.003090   0.000092  -0.001945  -0.039170   0.511972  -0.044454
    12  H    0.009970  -0.000168   0.015583  -0.046530  -0.044454   0.531584
    13  H   -0.005759  -0.001891   0.012411   0.002894  -0.008664   0.005515
    14  H    0.005741  -0.004725  -0.042703   0.010526   0.000054   0.001026
    15  H   -0.000951  -0.036795   0.002889  -0.000244  -0.000035   0.000044
    16  H    0.005599  -0.003253   0.003554   0.000044  -0.000001   0.000008
    17  H   -0.058160   0.000160  -0.006202   0.000049   0.000145  -0.000018
    18  O    0.014142   0.000120  -0.003100  -0.000265   0.000234  -0.000168
    19  C    0.005622  -0.000312  -0.001271   0.115867  -0.001444  -0.003179
    20  H    0.000123  -0.000001   0.000090  -0.053584  -0.000179  -0.000300
    21  H    0.000290  -0.000002   0.000330  -0.040283  -0.003676   0.011509
    22  H   -0.000200   0.000001  -0.000061  -0.045641   0.011084  -0.003922
    23  C    0.003098  -0.007223  -0.002528  -0.000443  -0.000241   0.000051
    24  H    0.000279   0.001035   0.000009   0.000001   0.000000  -0.000000
    25  H   -0.000333  -0.003732  -0.000044  -0.000003   0.000000  -0.000000
    26  H   -0.000230   0.000008  -0.000003  -0.000001   0.000000  -0.000000
    27  C    0.003127   0.114757   0.012422   0.001010   0.000033   0.000188
    28  H    0.000006  -0.043097  -0.000222   0.000003   0.000000  -0.000000
    29  H   -0.000143  -0.025857  -0.000178  -0.000002   0.000000  -0.000000
    30  H   -0.000004  -0.071175  -0.000443  -0.000002   0.000000  -0.000000
    31  C    0.021249   0.088060   0.312507  -0.002475   0.005866   0.007735
    32  O   -0.093707   0.022753  -0.111151  -0.002427   0.000407  -0.001767
    33  C    0.025664  -0.073499  -0.462596   0.003723   0.000844  -0.012541
    34  H    0.000158  -0.001266  -0.001279   0.000010  -0.000000  -0.000004
    35  H    0.000143   0.000671  -0.014233   0.000055   0.000002   0.000036
    36  H   -0.000232   0.000110   0.016500   0.000004   0.000001  -0.000032
              13         14         15         16         17         18
     1  C    0.068535   0.004624   0.000803   0.002745  -0.024888   0.035559
     2  C    0.090798  -0.065226   0.011368  -0.013824  -0.001341  -0.006134
     3  C    0.035836   0.372045   0.132827  -0.041176   0.049105   0.015725
     4  C    0.030969   0.026915   0.316035   0.000843  -0.063375  -0.047760
     5  C   -0.048218   0.005457  -0.103652   0.268861   0.148664   0.196228
     6  C    0.065971  -0.015944  -0.013983   0.147935   0.205976  -0.091605
     7  O   -0.005759   0.005741  -0.000951   0.005599  -0.058160   0.014142
     8  O   -0.001891  -0.004725  -0.036795  -0.003253   0.000160   0.000120
     9  O    0.012411  -0.042703   0.002889   0.003554  -0.006202  -0.003100
    10  O    0.002894   0.010526  -0.000244   0.000044   0.000049  -0.000265
    11  H   -0.008664   0.000054  -0.000035  -0.000001   0.000145   0.000234
    12  H    0.005515   0.001026   0.000044   0.000008  -0.000018  -0.000168
    13  H    0.438819   0.001227   0.000131  -0.000097   0.000201  -0.004634
    14  H    0.001227   0.386918  -0.006040  -0.000012   0.000107  -0.000448
    15  H    0.000131  -0.006040   0.442480  -0.000560  -0.000163  -0.000066
    16  H   -0.000097  -0.000012  -0.000560   0.453274  -0.005768  -0.039821
    17  H    0.000201   0.000107  -0.000163  -0.005768   0.443453   0.003188
    18  O   -0.004634  -0.000448  -0.000066  -0.039821   0.003188   7.893472
    19  C    0.003495   0.000065  -0.000039  -0.000024   0.000045  -0.000155
    20  H    0.000054   0.000033  -0.000002   0.000000   0.000000  -0.000000
    21  H    0.000069   0.000156   0.000000   0.000000  -0.000000  -0.000001
    22  H   -0.000107  -0.000040  -0.000000   0.000000   0.000000   0.000004
    23  C   -0.004500   0.000345   0.005727  -0.005737  -0.000441   0.125038
    24  H   -0.000002  -0.000001   0.000235   0.012282  -0.000345  -0.044201
    25  H   -0.000025   0.000028  -0.000326  -0.004296   0.000100  -0.020165
    26  H   -0.000122   0.000001  -0.000273  -0.000259   0.000018  -0.070328
    27  C    0.001998   0.000886  -0.003590   0.008359   0.000469  -0.003563
    28  H    0.000002  -0.000247   0.012350   0.000399  -0.000004   0.001471
    29  H   -0.000010   0.000085  -0.004642  -0.000191   0.000054  -0.004288
    30  H   -0.000005  -0.000013  -0.000206  -0.000235  -0.000001   0.000046
    31  C    0.017291   0.029875  -0.005201  -0.024082   0.059941  -0.006212
    32  O   -0.006642  -0.003249   0.001442   0.008884  -0.057194   0.010890
    33  C    0.006044   0.008846   0.000389  -0.022293   0.021749   0.007388
    34  H    0.000001   0.000006  -0.000009   0.000081   0.000002   0.000012
    35  H    0.000010   0.000033   0.000003   0.000003   0.000014  -0.000003
    36  H   -0.000003   0.000013   0.000000   0.000006   0.000019  -0.000006
              19         20         21         22         23         24
     1  C    0.066766   0.029556  -0.010901  -0.005238  -0.018042  -0.000598
     2  C   -0.325593  -0.001525  -0.009638   0.002050   0.076527  -0.006523
     3  C    0.084812  -0.004017   0.005751  -0.004624  -0.004233  -0.011508
     4  C   -0.048630   0.000912  -0.000273   0.001221  -0.000814  -0.013916
     5  C    0.006416  -0.000319   0.000138  -0.000082  -0.093952  -0.019686
     6  C   -0.000165   0.000156   0.000667  -0.000516  -0.212477   0.041264
     7  O    0.005622   0.000123   0.000290  -0.000200   0.003098   0.000279
     8  O   -0.000312  -0.000001  -0.000002   0.000001  -0.007223   0.001035
     9  O   -0.001271   0.000090   0.000330  -0.000061  -0.002528   0.000009
    10  O    0.115867  -0.053584  -0.040283  -0.045641  -0.000443   0.000001
    11  H   -0.001444  -0.000179  -0.003676   0.011084  -0.000241   0.000000
    12  H   -0.003179  -0.000300   0.011509  -0.003922   0.000051  -0.000000
    13  H    0.003495   0.000054   0.000069  -0.000107  -0.004500  -0.000002
    14  H    0.000065   0.000033   0.000156  -0.000040   0.000345  -0.000001
    15  H   -0.000039  -0.000002   0.000000  -0.000000   0.005727   0.000235
    16  H   -0.000024   0.000000   0.000000   0.000000  -0.005737   0.012282
    17  H    0.000045   0.000000  -0.000000   0.000000  -0.000441  -0.000345
    18  O   -0.000155  -0.000000  -0.000001   0.000004   0.125038  -0.044201
    19  C    5.126127   0.403095   0.416695   0.416264   0.000027  -0.000001
    20  H    0.403095   0.481109  -0.023064  -0.020721  -0.000003   0.000000
    21  H    0.416695  -0.023064   0.532877  -0.042962   0.000001   0.000000
    22  H    0.416264  -0.020721  -0.042962   0.521976  -0.000004   0.000000
    23  C    0.000027  -0.000003   0.000001  -0.000004   5.214618   0.408935
    24  H   -0.000001   0.000000   0.000000   0.000000   0.408935   0.506859
    25  H    0.000000   0.000000  -0.000000  -0.000000   0.396070  -0.041246
    26  H   -0.000005   0.000000  -0.000000   0.000000   0.411377  -0.018025
    27  C   -0.000152   0.000008   0.000009  -0.000001  -0.030808   0.005056
    28  H    0.000004  -0.000000  -0.000000   0.000000   0.001064   0.000269
    29  H    0.000001  -0.000000  -0.000000   0.000000  -0.007082  -0.001148
    30  H   -0.000002  -0.000000  -0.000000   0.000000   0.000651   0.000007
    31  C    0.004109   0.000118  -0.000313   0.000651  -0.002952  -0.000987
    32  O   -0.001362  -0.000002   0.000013  -0.000005   0.001626  -0.000127
    33  C    0.011258   0.000045  -0.001485   0.000265   0.008397  -0.000152
    34  H   -0.000005  -0.000000  -0.000000  -0.000000  -0.000045   0.000000
    35  H    0.000166   0.000000  -0.000004   0.000000  -0.000015  -0.000000
    36  H   -0.000024   0.000000  -0.000000   0.000000  -0.000009  -0.000000
              25         26         27         28         29         30
     1  C    0.003404  -0.001612  -0.016560   0.001298  -0.001061  -0.000200
     2  C    0.011651  -0.000948  -0.034060  -0.001243  -0.003469   0.001705
     3  C    0.035612  -0.004746  -0.357336   0.068598  -0.027044  -0.008938
     4  C    0.066221  -0.008158   0.086165  -0.036309  -0.098574   0.059038
     5  C   -0.092617   0.057028  -0.035105  -0.031992   0.111930  -0.010297
     6  C   -0.013808  -0.010155   0.079516  -0.004986   0.009150  -0.001383
     7  O   -0.000333  -0.000230   0.003127   0.000006  -0.000143  -0.000004
     8  O   -0.003732   0.000008   0.114757  -0.043097  -0.025857  -0.071175
     9  O   -0.000044  -0.000003   0.012422  -0.000222  -0.000178  -0.000443
    10  O   -0.000003  -0.000001   0.001010   0.000003  -0.000002  -0.000002
    11  H    0.000000   0.000000   0.000033   0.000000   0.000000   0.000000
    12  H   -0.000000  -0.000000   0.000188  -0.000000  -0.000000  -0.000000
    13  H   -0.000025  -0.000122   0.001998   0.000002  -0.000010  -0.000005
    14  H    0.000028   0.000001   0.000886  -0.000247   0.000085  -0.000013
    15  H   -0.000326  -0.000273  -0.003590   0.012350  -0.004642  -0.000206
    16  H   -0.004296  -0.000259   0.008359   0.000399  -0.000191  -0.000235
[...]
 6,0.00015504,0.00187882,0.00166958,-0.00101210,0.00004862,-0.00017443,
 -0.00005478,-0.00076024,-0.00046373,-0.00015309,-0.00070312,-0.0001309
 2,0.00013809,-0.00160827,-0.00143537,0.00113352,0.00011860,0.00001127,
 -0.00025465,0.00109613,-0.00004958,-0.00049403,0.00024009,0.00034654,0
 .00003187,0.06833618,0.09456345,0.78087138,-0.00120300,0.00003930,-0.0
 0002254,0.00254291,0.00222833,0.00615284,-0.00801950,0.00235165,-0.003
 19763,0.00301079,0.00124847,0.00509617,-0.01870222,0.03940621,-0.00257
 378,-0.06452095,-0.02046738,0.00330821,0.01831956,0.00695698,-0.020401
 13,-0.00200277,-0.00354566,-0.00225899,0.03633889,0.00003361,0.0150079
 5,0.00061704,-0.00029737,-0.00086532,-0.00004582,-0.00021661,0.0001963
 8,0.00026202,0.00017946,-0.00013642,-0.00073639,-0.00133491,-0.0005394
 5,0.00145626,-0.00089206,-0.00005997,0.00071436,0.00044588,-0.00039044
 ,0.00051894,0.00059550,-0.00010356,-0.00458365,0.00735339,-0.00191755,
 -0.01513918,-0.00350082,-0.00040708,-0.00040987,-0.00005198,0.00010299
 ,0.00003101,0.00003032,-0.00007595,0.00011684,0.00000932,-0.00000896,0
 .00002284,-0.00002640,0.00000220,0.00287907,0.00267490,-0.00301526,-0.
 00001550,-0.00025472,0.00030036,-0.00077839,-0.00037152,-0.00004306,-0
 .00116422,-0.00024370,0.00027025,0.00021322,0.00024804,-0.00040045,-0.
 00023335,-0.00009650,0.00005232,0.00023277,0.00003645,-0.00019638,-0.0
 0007794,-0.00007953,0.00000071,-0.13973748,0.10545160,0.06002227,0.200
 93430,0.00232025,-0.00009945,-0.00053650,-0.00491412,-0.00805057,-0.01
 629006,0.01217371,-0.00961018,0.01080970,-0.00255824,-0.00233890,-0.00
 170604,0.00416469,-0.01194530,-0.00152883,-0.00276179,-0.00800427,-0.0
 2672458,-0.00098487,-0.04501928,0.05936762,-0.00220793,0.00242877,-0.0
 0126282,-0.00579327,0.02009204,-0.05209060,-0.00111220,0.00074326,0.00
 239689,0.00005528,0.00059567,-0.00049442,-0.00053464,-0.00023703,0.000
 02560,0.00156130,0.00247230,0.00278016,-0.00135727,0.00147208,-0.00006
 043,-0.00097306,0.00027033,0.00133711,0.00071085,0.00027050,0.00009857
 ,0.02627211,-0.02464099,0.00673377,0.00599552,0.00339595,0.00032827,0.
 00084415,0.00021679,-0.00033348,-0.00007191,-0.00004994,0.00019028,-0.
 00023282,-0.00005904,0.00003310,-0.00007218,0.00003063,-0.00003110,-0.
 00228362,-0.00077428,0.00136672,0.00004672,0.00008641,-0.00017867,0.00
 072312,0.00024225,0.00006078,0.00044721,0.00010176,-0.00003282,0.00077
 986,0.00071975,-0.00110162,-0.00031673,-0.00011122,0.00007361,-0.00026
 976,-0.00008672,0.00039482,0.00009356,0.00010473,0.00005817,0.11259018
 ,-0.23962322,-0.12705126,-0.17175166,0.35011855,0.00052657,-0.00014521
 ,0.00082616,-0.00443433,-0.00025559,-0.00152776,0.01537846,-0.00734631
 ,0.00908019,-0.00004714,0.00078407,-0.00316567,-0.00906166,0.00059190,
 -0.00010250,-0.00821871,0.00762169,-0.08448382,-0.01345558,0.03292168,
 -0.00473979,-0.00108684,0.00061615,0.00207066,0.00692574,-0.04224209,-
 0.08933377,0.00004478,0.00051768,-0.00050124,-0.00014680,0.00024719,-0
 .00027794,-0.00048796,-0.00036327,-0.00003235,0.00038852,0.00110116,-0
 .00020470,-0.00144390,0.00073217,0.00042149,-0.00044805,0.00015865,0.0
 0151362,-0.00094893,-0.00084181,0.00105040,0.01585152,-0.01743259,0.00
 685830,0.00326594,-0.00055409,0.00300502,-0.00026897,-0.00022676,0.000
 66279,-0.00000870,-0.00003425,-0.00001890,0.00000944,-0.00002543,-0.00
 000661,0.00004371,0.00012660,-0.00004213,-0.00116532,-0.00004267,0.000
 61081,-0.00008859,0.00007380,-0.00002738,0.00042922,0.00018486,0.00003
 268,0.00016699,0.00000983,-0.00002764,0.00050467,0.00027541,-0.0006266
 0,-0.00004972,-0.00000915,0.00011817,-0.00038586,0.00003131,0.00021882
 ,-0.00005403,-0.00007985,-0.00002266,0.07360186,-0.14378791,-0.2726520
 2,-0.07630010,0.17437754,0.42317882,-0.00025696,-0.00005317,0.00006867
 ,-0.00092850,0.00098584,0.00011303,0.00477131,0.00247001,0.00058172,0.
 00056829,-0.00012658,0.00028105,0.00024644,-0.00064531,0.00020646,0.00
 626280,-0.00098187,0.00148876,-0.00004750,0.00129139,-0.00229528,-0.00
 014677,-0.00012522,-0.00005334,-0.00623028,0.01259034,-0.01732910,0.00
 011794,0.00006470,-0.00013966,0.00000562,0.00000250,-0.00001296,0.0000
 2489,-0.00007550,-0.00002379,0.00008279,0.00023791,-0.00002826,0.00033
 976,-0.00020172,0.00003394,0.00004328,0.00007070,-0.00016848,-0.000062
 03,-0.00006218,-0.00001642,-0.00065129,0.00042647,-0.00015070,0.000185
 51,0.00000324,0.00009058,-0.00007354,-0.00003562,0.00007882,0.00000550
 ,-0.00000119,-0.00001224,0.00001201,-0.00000877,-0.00000463,0.00000718
 ,0.00001419,-0.00000552,0.00004343,-0.00006514,0.00004628,-0.00001049,
 0.00000249,0.00000059,-0.00000977,0.00000645,0.00000898,0.00001680,0.0
 0000812,-0.00001600,0.00015329,0.00013088,-0.00002341,-0.00002167,-0.0
 0000428,-0.00000564,-0.00001128,-0.00000390,0.00001057,-0.00001647,-0.
 00000491,0.00000974,-0.16002379,0.07386903,-0.02768440,-0.00656019,0.0
 2415939,-0.00046730,0.55129628,-0.00010581,0.00000940,-0.00028818,-0.0
 0126268,0.00041995,-0.00116344,0.00001961,0.00651449,-0.00369161,0.001
 22282,-0.00137419,0.00065432,-0.00015987,-0.00135124,0.00030478,-0.000
 22124,0.00943093,-0.00285398,-0.00062046,-0.00059353,0.00132343,-0.000
 05514,0.00059953,0.00009876,0.00708170,0.00214154,0.01132386,-0.000125
 57,-0.00005379,0.00053180,0.00003057,-0.00001544,0.00004591,0.00011508
 ,0.00002466,-0.00001522,0.00016719,0.00022981,0.00014984,0.00024201,-0
 .00004680,-0.00009300,0.00027478,0.00006648,-0.00037232,-0.00011091,-0
 .00009964,-0.00000058,0.00009561,-0.00004904,0.00010169,0.00152756,-0.
 00010401,0.00001183,0.00022231,0.00008561,-0.00024670,-0.00000119,-0.0
 0000171,0.00003806,-0.00004274,-0.00001273,-0.00000491,-0.00002831,-0.
 00002448,0.00000839,-0.00050845,-0.00022385,0.00034560,0.00000810,0.00
 003767,-0.00005141,0.00005649,0.00005450,0.00000389,0.00010211,-0.0000
 0032,-0.00002754,-0.00032654,-0.00020184,0.00009775,0.00003984,-0.0000
 1930,-0.00000159,0.00001096,-0.00001502,0.00002843,0.00004504,0.000050
 14,-0.00001274,0.06427920,-0.14847308,0.03100716,0.02963911,-0.0293756
 1,-0.01049382,0.00919802,0.50766162,-0.00008339,-0.00002376,0.00011986
 ,-0.00188741,-0.00060451,-0.00213952,0.00499221,-0.00123467,-0.0007083
 8,-0.00011355,0.00037341,-0.00092823,-0.00047321,-0.00085611,-0.000394
 36,-0.00332351,0.00347283,-0.00524228,-0.00044041,-0.00173204,0.004224
 32,-0.00000077,-0.00013792,0.00046834,-0.03668442,0.02903172,-0.026014
 46,0.00011142,0.00012292,-0.00004518,0.00005938,0.00005792,-0.00008355
 ,0.00001291,-0.00004942,-0.00000801,0.00033403,0.00064864,0.00020443,-
 0.00091300,0.00066730,-0.00016909,-0.00017079,-0.00009199,0.00035453,0
 .00000884,0.00009465,0.00012657,0.00112337,-0.00092639,0.00032998,0.00
 055524,0.00017847,0.00018577,-0.00008886,0.00000215,0.00014660,-0.0000
 0462,-0.00000605,-0.00000092,0.00002072,-0.00000124,-0.00000275,0.0000
 2130,0.00001710,-0.00001800,-0.00011483,-0.00008382,0.00006219,-0.0000
 0022,0.00000750,0.00000317,0.00006692,0.00002743,0.00000661,0.00004560
 ,0.00000997,-0.00000512,0.00015973,0.00007458,-0.00006761,0.00000890,-
 0.00000031,0.00001613,-0.00007357,0.00001498,0.00003183,-0.00003124,-0
 .00003405,-0.00001167,-0.02846662,0.03368275,-0.09087375,0.02072896,-0
 .03169999,0.00732014,0.00596068,0.03605688,0.61550517,-0.00002653,-0.0
 0001936,0.00004214,0.00011371,-0.00015782,0.00019781,-0.00008468,-0.00
 127113,0.00030556,-0.00013761,0.00089755,-0.00042062,0.00007614,0.0003
 6110,-0.00010274,-0.00064455,-0.00158086,0.00036547,0.00004638,0.00005
 823,-0.00007811,0.00035837,-0.00061152,0.00026504,-0.00181789,0.000235
 82,-0.00113429,0.00004177,0.00002536,-0.00009486,-0.00000225,0.0000061
 3,-0.00001098,-0.00002940,-0.00000629,0.00000257,-0.00000451,0.0000187
 3,-0.00002038,-0.00018197,0.00008657,-0.00001748,-0.00008040,-0.000109
 96,0.00017852,0.00001105,0.00004683,0.00004235,0.00000556,-0.00002087,
 -0.00000950,-0.00036250,-0.00005011,-0.00000029,-0.00005136,-0.0000124
 2,0.00005093,0.00000392,-0.00000045,-0.00000704,0.00000964,-0.00000156
 ,-0.00000196,0.00000632,0.00000605,-0.00000325,0.00010926,0.00005825,-
 0.00007756,-0.00000140,-0.00000273,0.00001639,-0.00002086,-0.00001008,
 -0.00001487,-0.00002682,-0.00000573,0.00000660,-0.00013297,-0.00001215
 ,0.00002470,0.00005207,-0.00001567,0.00002882,0.00001991,-0.00000697,-
 0.00003310,-0.00010425,-0.00007125,-0.00001074,0.01569168,0.01893919,-
 0.00406343,-0.00326546,0.00184315,0.00194499,-0.11418156,-0.11643634,0
 .01910916,0.12185287,-0.00000850,-0.00001411,0.00008218,-0.00018335,0.
 00016730,-0.00003174,0.00096311,0.00010279,0.00034881,0.00005203,-0.00
 031296,0.00014253,0.00006545,-0.00037941,0.00002849,0.00138352,0.00016
 345,-0.00003936,-0.00012931,0.00029709,-0.00028935,-0.00053562,0.00004
 316,-0.00023937,0.00024849,0.00123686,-0.00276788,0.00003518,0.0000241
 7,-0.00011137,-0.00000313,0.00000775,-0.00001538,-0.00001854,-0.000015
 46,-0.00000435,0.00002021,0.00004996,0.00000868,0.00006175,-0.00002326
 ,0.00001659,-0.00004242,0.00008869,-0.00003985,0.00001148,-0.00000951,
 -0.00002613,-0.00007440,0.00002519,-0.00001263,0.00003325,0.00011045,0
 .00001537,-0.00004849,-0.00002083,0.00006359,-0.00000078,-0.00000025,-
 0.00000810,0.00000892,0.00000138,0.00000077,0.00000664,0.00000740,-0.0
 0000351,0.00005536,-0.00002013,0.00001349,-0.00000378,-0.00000323,0.00
 000144,0.00000702,-0.00000121,0.00000608,0.00000582,0.00000772,-0.0000
 0395,0.00028134,0.00030204,-0.00014001,-0.00008538,-0.00001907,-0.0000
 0417,-0.00004095,-0.00002659,0.00003117,-0.00000876,0.00000299,0.00002
 763,-0.01176102,-0.02687429,0.00557901,0.00143058,0.00102248,0.0009745
 0,-0.12003163,-0.23297638,0.03755873,0.12700720,0.25589743,0.00005794,
 0.00001114,0.00006158,0.00013333,-0.00011205,0.00005516,-0.00041854,-0
 .00094442,0.00025158,-0.00012521,0.00038654,-0.00029756,-0.00005410,-0
 .00014945,0.00008581,0.00018845,0.00015324,-0.00010640,-0.00003828,0.0
 0003965,0.00000254,0.00023638,-0.00022245,-0.00016180,-0.00212724,0.00
 044449,-0.00114130,-0.00000312,-0.00001979,-0.00006295,-0.00000899,0.0
 0000519,-0.00001202,-0.00002390,-0.00001304,0.00001117,-0.00000470,-0.
 00001913,0.00000062,-0.00013448,0.00010284,-0.00002395,-0.00005441,-0.
 00003818,0.00010421,0.00002496,0.00000679,0.00000102,-0.00000598,-0.00
 001454,0.00001414,0.00004927,-0.00000049,-0.00003257,-0.00001926,0.000
 00003,0.00002326,-0.00000235,0.00000414,-0.00000685,0.00000766,0.00000
 511,0.00000315,0.00000398,-0.00000195,-0.00000294,-0.00000114,-0.00000
 636,0.00002094,0.00000165,-0.00000128,-0.00000372,0.00000225,-0.000000
 17,-0.00000303,0.00000341,0.00000143,-0.00000224,-0.00010003,-0.000113
 84,0.00008697,0.00001940,0.00003078,-0.00001587,0.00005641,-0.00003020
 ,-0.00002351,-0.00001732,0.00001872,0.00006732,0.00672205,0.00754667,-
 0.00422212,0.00089749,-0.00088470,-0.00000550,0.01920441,0.03814260,-0
 .04466606,-0.02282930,-0.04123672,0.04809150,-0.00003965,0.00000154,0.
 00001057,0.00018382,0.00018887,0.00031215,-0.00020024,0.00029370,-0.00
 030476,0.00008725,-0.00004469,0.00018153,0.00006655,0.00007673,0.00002
 901,0.00108840,-0.00095716,0.00099926,0.00002572,0.00033669,-0.0007762
 1,-0.00000955,-0.00003732,-0.00015256,0.00200398,-0.00007612,-0.000635
 28,-0.00001721,-0.00005931,0.00001431,0.00000877,-0.00002336,0.0000174
 5,0.00002558,0.00003415,-0.00000497,-0.00004139,-0.00008358,-0.0000300
 0,0.00005660,-0.00003612,-0.00000304,0.00003055,0.00003006,-0.00005200
 ,0.00000608,-0.00000675,-0.00002746,-0.00022764,0.00017112,-0.00008398
 ,-0.00008560,-0.00002681,-0.00002204,0.00003165,0.00001153,-0.00004519
 ,-0.00000173,0.00000468,-0.00000280,0.00000068,0.00000860,-0.00000007,
 -0.00000192,-0.00001027,0.00000319,0.00002947,0.00001770,-0.00001066,-
 0.00000052,-0.00000146,0.00000031,-0.00001166,-0.00000651,-0.00000269,
 -0.00000735,-0.00000096,0.00000087,0.00000356,0.00001932,-0.00000977,-
 0.00001845,0.00000014,0.00000088,0.00000871,-0.00000740,-0.00000899,-0
 .00000125,0.00000181,0.00001264,-0.01446895,-0.00139083,0.01805113,-0.
 00214068,0.00389501,-0.00112610,-0.16337061,0.03544530,0.13036207,-0.0
 0999144,0.00358233,0.01075040,0.17374634,0.00030135,-0.00002619,0.0001
 5893,-0.00010114,-0.00017826,-0.00033742,0.00021143,-0.00061340,0.0004
 5208,-0.00017540,0.00008047,-0.00020421,-0.00010876,-0.00029142,-0.000
 07920,-0.00030264,0.00100981,-0.00122214,-0.00030284,-0.00035639,0.000
 97264,-0.00012664,-0.00002043,-0.00004272,-0.00228462,0.00067042,-0.00
 150177,-0.00008981,0.00000464,-0.00014854,-0.00004430,0.00002954,-0.00
 002454,-0.00009270,-0.00000571,0.00001145,0.00001869,0.00005463,0.0000
 3589,-0.00009212,0.00009685,-0.00001088,-0.00006921,0.00000796,0.00008
 930,0.00002508,0.00001321,0.00001171,0.00023759,-0.00020089,0.00007154
 ,0.00012437,0.00005398,0.00003239,-0.00000762,-0.00003481,0.00007551,-
 0.00001094,0.00000272,-0.00000929,-0.00000300,0.00001221,0.00001024,0.
 00000386,0.00000853,-0.00000337,0.00000411,-0.00001214,0.00001776,-0.0
 0000161,-0.00000140,0.00000109,0.00001608,0.00000316,0.00000058,0.0000
 1169,0.00000476,-0.00000105,0.00009164,0.00004876,-0.00003097,-0.00002
 105,0.00001151,-0.00000457,-0.00000720,-0.00000976,0.00000667,0.000003
 24,0.00000510,0.00002491,0.01760227,-0.00702682,-0.01983824,0.00391245
 ,-0.00510608,0.00200750,0.03242933,-0.04643772,-0.03437972,-0.01801078
 ,0.00601023,0.02016128,-0.03831510,0.05485602,-0.00006764,0.00002013,0
 .00007389,0.00006224,0.00006582,0.00017144,0.00020267,-0.00052246,0.00
 068378,-0.00011044,0.00018159,-0.00011783,0.00013777,-0.00004704,-0.00
 002489,0.00076708,-0.00014404,0.00071151,0.00002624,0.00015730,-0.0004
 8187,-0.00005523,-0.00010624,-0.00002478,-0.00103461,0.00134996,-0.002
 17045,0.00006124,-0.00003095,-0.00011711,0.00001438,-0.00001092,-0.000
 00816,0.00001141,0.00000401,0.00002366,-0.00000042,0.00000023,-0.00002
 822,-0.00000695,-0.00002646,0.00001275,-0.00005372,-0.00000318,0.00004
 773,-0.00000460,0.00001477,-0.00000728,-0.00017224,0.00015195,-0.00005
 993,-0.00012616,0.00002521,0.00000647,-0.00008031,0.00000505,0.0000414
 3,0.00000100,0.00000371,-0.00001090,0.00002783,0.00001123,-0.00000236,
 0.00001573,-0.00000694,-0.00000394,0.00006240,0.00000873,-0.00003247,-
 0.00000240,-0.00000273,0.00000642,-0.00000640,-0.00000461,0.00000187,-
 0.00000826,0.00000190,0.00000199,0.00007360,0.00006576,-0.00004501,-0.
 00001937,-0.00000171,0.00000438,-0.00001393,0.00000148,-0.00000061,-0.
 00000773,-0.00001135,0.00000084,-0.00682116,-0.00232580,0.00889711,-0.
 00133273,0.00356543,0.00054839,0.13503993,-0.03638153,-0.20641780,0.00
 212209,-0.00152265,-0.00400273,-0.14591457,0.03784431,0.21610188,-0.00
 001525,-0.00000651,0.00005469,-0.00043819,-0.00002368,-0.00038485,0.00
 134965,0.00022964,-0.00011917,0.00010901,-0.00003897,-0.00009385,-0.00
 002941,-0.00020234,-0.00011146,-0.00004205,0.00092504,-0.00033633,-0.0
 0006949,-0.00025080,0.00055238,-0.00009248,-0.00001867,0.00012090,-0.0
 0251762,0.00336751,-0.00258480,0.00001070,0.00000420,-0.00002479,0.000
 01122,0.00000552,-0.00001529,-0.00000434,0.00000111,0.00000275,0.00007
 308,0.00013409,0.00004299,-0.00011700,0.00009762,-0.00002266,-0.000016
 80,0.00000167,0.00002898,-0.00002645,0.00001368,0.00002510,0.00003216,
 0.00001079,0.00001514,0.00011116,0.00001906,0.00006868,-0.00001825,0.0
 0000288,0.00002252,-0.00000159,0.00000028,-0.00000268,0.00000700,0.000
 00524,-0.00000107,0.00000660,-0.00000043,-0.00000312,-0.00001148,-0.00
 001872,-0.00000297,-0.00000263,0.00000212,0.00000463,0.00000944,0.0000
 0508,0.00000118,0.00000928,0.00000110,0.00000026,0.00007505,0.00006945
 ,-0.00005881,-0.00001894,-0.00000851,0.00001396,-0.00003543,0.00000763
 ,0.00001069,-0.00000572,-0.00001539,-0.00000912,-0.01022052,-0.0110501
 4,-0.01624765,0.00112573,-0.00048000,0.00061217,-0.11158041,-0.0298181
 6,-0.11081099,-0.00725023,-0.00228364,-0.01239108,0.01323214,0.0051742
 9,0.01721326,0.11635207,0.00007856,-0.00000113,-0.00001303,0.00046267,
 0.00005728,0.00039484,-0.00081194,-0.00014981,0.00044722,-0.00010215,-
 0.00012352,0.00019341,0.00000847,0.00020268,-0.00001628,0.00005322,-0.
 00068792,0.00038075,-0.00006149,0.00008354,-0.00042303,-0.00004252,0.0
 0011227,-0.00007239,0.00549480,-0.00373855,0.00314162,-0.00005575,-0.0
 0002597,-0.00000548,-0.00001288,-0.00001393,0.00002241,-0.00001997,0.0
 0002909,0.00000776,-0.00007826,-0.00014375,-0.00003765,0.00019989,-0.0
 0016035,0.00005605,0.00003339,0.00002659,-0.00006488,0.00000445,-0.000
 00882,-0.00002182,0.00001481,0.00000699,-0.00003018,-0.00012695,-0.000
 02111,-0.00002763,0.00002202,-0.00000707,-0.00002283,-0.00000061,-0.00
 000045,0.00000073,-0.00000778,0.00000225,0.00000281,-0.00000419,-0.000
 00254,0.00000551,0.00002776,0.00002569,-0.00002050,0.00000069,-0.00000
 066,0.00000077,-0.00001024,-0.00000844,-0.00000338,-0.00000841,-0.0000
 0039,0.00000307,0.00001671,0.00001143,-0.00001717,-0.00000637,-0.00000
 380,0.00000080,-0.00000498,0.00001179,-0.00000026,0.00002065,0.0000027
 5,-0.00002045,0.01166483,0.00676460,0.02281189,-0.00114078,0.00074782,
 0.00052712,-0.03553401,-0.06587663,-0.07023795,-0.01117610,-0.00487181
 ,-0.02325187,-0.00303554,-0.00266308,-0.00233000,0.03413799,0.07042494
 ,-0.00003886,0.00001013,-0.00004465,-0.00014049,-0.00000435,-0.0001809
 0,0.00030558,-0.00025937,0.00021763,-0.00004392,0.00002930,-0.00011304
 ,-0.00005281,-0.00021985,0.00003740,-0.00001289,0.00109343,-0.00014794
 ,-0.00001816,-0.00014087,0.00026026,0.00008283,0.00002891,0.00003210,-
 0.00240540,0.00067976,0.00074203,0.00001572,0.00001725,0.00007030,0.00
 000632,0.00000572,-0.00000425,0.00001992,-0.00002496,-0.00000867,0.000
 04960,0.00002897,0.00002224,-0.00004966,0.00004119,-0.00001909,-0.0000
 1326,-0.00001732,0.00003537,0.00000067,-0.00000057,0.00000918,-0.00000
 009,-0.00001189,0.00002045,0.00021373,-0.00000475,-0.00000275,0.000014
 81,0.00001164,-0.00001670,0.00000120,-0.00000108,0.00000524,-0.0000041
 1,-0.00000635,-0.00000085,-0.00000307,0.00000019,-0.00000115,-0.000065
 70,-0.00003309,0.00004658,0.00000273,0.00000615,-0.00000683,0.00001121
 ,0.00000839,-0.00000060,0.00001439,0.00000067,-0.00000324,-0.00005830,
 -0.00004515,0.00003270,0.00001579,0.00000419,-0.00000243,0.00000978,-0
 .00000412,-0.00000092,-0.00000366,0.00000476,0.00000376,-0.00229958,-0
 .00070058,-0.00881500,0.00210764,-0.00199023,0.00028253,-0.11478711,-0
 .06457641,-0.25130892,0.00422734,0.00159745,0.00591216,-0.01153263,-0.
 00414717,-0.01377918,0.12443044,0.06861999,0.26672716\\-0.00001892,-0.
 00002340,-0.00003706,0.00001550,0.00002364,0.00003720,-0.00000639,-0.0
 0000509,-0.00001690,-0.00000323,-0.00004939,0.00000754,-0.00001575,0.0
 0000792,0.00001749,0.00005173,0.00002301,-0.00001707,-0.00003320,-0.00
 001430,0.00000156,-0.00001304,0.00001982,0.00000046,0.00000641,-0.0000
 1180,-0.00000196,0.00002671,0.00001219,-0.00000316,0.00000346,0.000005
 98,-0.00000237,0.00000875,-0.00000024,0.00000505,-0.00000505,0.0000002
 9,-0.00000602,-0.00000301,-0.00000351,-0.00000358,-0.00000485,0.000002
 61,-0.00000149,-0.00000587,0.00000282,0.00000323,-0.00000100,0.0000053
 0,0.00000753,-0.00001966,-0.00000110,-0.00000283,-0.00002701,-0.000014
 74,0.00001464,0.00000120,-0.00000582,-0.00000931,0.00000825,-0.0000050
 9,-0.00000444,0.00000355,0.00000253,-0.00000842,0.00004125,0.00000593,
 -0.00001217,-0.00000898,-0.00000108,0.00000744,-0.00001015,-0.00000516
 ,-0.00000195,-0.00000468,0.00000424,-0.00000181,0.00002998,0.00001447,
 -0.00000575,-0.00000850,-0.00000325,0.00000021,-0.00000501,0.00000266,
 0.00000867,0.00000197,-0.00000329,0.00000447,0.00000265,-0.00000437,-0
 .00000732,-0.00002134,0.00001602,0.00001223,0.00000651,-0.00000852,0.0
 0000847,-0.00000007,0.00000139,0.00000229,0.00000510,0.00000390,0.0000
 0045,0.00000271,0.00000543,0.00000465\\\@


 EVERYBODY NEEDS BEAUTY AS WELL AS BREAD, PLACES TO PLAY IN AND PRAY IN,
 WHERE NATURE MAY HEAL AND CHEER AND GIVE STRENGTH TO BODY AND SOUL ALIKE.

                                    -- JOHN MUIR
 Job cpu time:       0 days  5 hours 30 minutes 23.3 seconds.
 File lengths (MBytes):  RWF=    766 Int=      0 D2E=      0 Chk=     19 Scr=      1
 Normal termination of Gaussian 09 at Mon Jan  9 14:49:04 2017.
