 Entering Gaussian System, Link 0=g09
 Initial command:
 /share/apps//g09/l1.exe "/scratch/Gau-2891.inp" -scrdir="/scratch/"
 Entering Link 1 = /share/apps//g09/l1.exe PID=      2892.
  
 Copyright (c) 1988,1990,1992,1993,1995,1998,2003,2009,2013,
            Gaussian, Inc.  All Rights Reserved.
  
 This is part of the Gaussian(R) 09 program.  It is based on
 the Gaussian(R) 03 system (copyright 2003, Gaussian, Inc.),
 the Gaussian(R) 98 system (copyright 1998, Gaussian, Inc.),
 the Gaussian(R) 94 system (copyright 1995, Gaussian, Inc.),
 the Gaussian 92(TM) system (copyright 1992, Gaussian, Inc.),
 the Gaussian 90(TM) system (copyright 1990, Gaussian, Inc.),
 the Gaussian 88(TM) system (copyright 1988, Gaussian, Inc.),
 the Gaussian 86(TM) system (copyright 1986, Carnegie Mellon
 University), and the Gaussian 82(TM) system (copyright 1983,
 Carnegie Mellon University). Gaussian is a federally registered
 trademark of Gaussian, Inc.
  
 This software contains proprietary and confidential information,
 including trade secrets, belonging to Gaussian, Inc.
  
 This software is provided under written license and may be
 used, copied, transmitted, or stored only in accord with that
 written license.
  
 The following legend is applicable only to US Government
 contracts under FAR:
  
                    RESTRICTED RIGHTS LEGEND
  
 Use, reproduction and disclosure by the US Government is
 subject to restrictions as set forth in subparagraphs (a)
 and (c) of the Commercial Computer Software - Restricted
 Rights clause in FAR 52.227-19.
  
 Gaussian, Inc.
 340 Quinnipiac St., Bldg. 40, Wallingford CT 06492
  
  
 ---------------------------------------------------------------
 Warning -- This program may not be used in any manner that
 competes with the business of Gaussian, Inc. or will provide
 assistance to any competitor of Gaussian, Inc.  The licensee
 of this program is prohibited from giving any competitor of
 Gaussian, Inc. access to this program.  By using this program,
 the user acknowledges that Gaussian, Inc. is engaged in the
 business of creating and licensing software in the field of
 computational chemistry and represents and warrants to the
 licensee that it is not a competitor of Gaussian, Inc. and that
 it will not use this program in any manner prohibited above.
 ---------------------------------------------------------------
  

 Cite this work as:
 Gaussian 09, Revision D.01,
 M. J. Frisch, G. W. Trucks, H. B. Schlegel, G. E. Scuseria, 
 M. A. Robb, J. R. Cheeseman, G. Scalmani, V. Barone, B. Mennucci, 
 G. A. Petersson, H. Nakatsuji, M. Caricato, X. Li, H. P. Hratchian, 
 A. F. Izmaylov, J. Bloino, G. Zheng, J. L. Sonnenberg, M. Hada, 
 M. Ehara, K. Toyota, R. Fukuda, J. Hasegawa, M. Ishida, T. Nakajima, 
 Y. Honda, O. Kitao, H. Nakai, T. Vreven, J. A. Montgomery, Jr., 
 J. E. Peralta, F. Ogliaro, M. Bearpark, J. J. Heyd, E. Brothers, 
 K. N. Kudin, V. N. Staroverov, T. Keith, R. Kobayashi, J. Normand, 
 K. Raghavachari, A. Rendell, J. C. Burant, S. S. Iyengar, J. Tomasi, 
 M. Cossi, N. Rega, J. M. Millam, M. Klene, J. E. Knox, J. B. Cross, 
 V. Bakken, C. Adamo, J. Jaramillo, R. Gomperts, R. E. Stratmann, 
 O. Yazyev, A. J. Austin, R. Cammi, C. Pomelli, J. W. Ochterski, 
 R. L. Martin, K. Morokuma, V. G. Zakrzewski, G. A. Voth, 
 P. Salvador, J. J. Dannenberg, S. Dapprich, A. D. Daniels, 
 O. Farkas, J. B. Foresman, J. V. Ortiz, J. Cioslowski, 
 and D. J. Fox, Gaussian, Inc., Wallingford CT, 2013.
 
 ******************************************
 Gaussian 09:  EM64L-G09RevD.01 24-Apr-2013
                10-Jan-2017 
 ******************************************
 %nproc=20
 Will use up to   20 processors via shared memory.
 %mem=100GB
 %chk=Ac-4_cGalMe.chk
 -------------------------------------------------------------------
 #P PBE1PBE/6-311+G(d,p) opt optcyc=999 freq EmpiricalDispersion=GD3
 -------------------------------------------------------------------
 1/6=999,14=-1,18=20,19=15,26=3,38=1/1,3;
 2/9=110,12=2,17=6,18=5,40=1/2;
 3/5=4,6=6,7=111,11=2,16=1,25=1,30=1,71=1,74=-13,124=31/1,2,3;
 4//1;
 5/5=2,38=5/2;
 6/7=2,8=2,9=2,10=2,28=1/1;
 7//1,2,3,16;
 1/6=999,14=-1,18=20,19=15,26=3/3(2);
 2/9=110/2;
 99//99;
 2/9=110/2;
 3/5=4,6=6,7=111,11=2,16=1,25=1,30=1,71=1,74=-13,124=31/1,2,3;
 4/5=5,16=3,69=1/1;
 5/5=2,38=5/2;
 7//1,2,3,16;
 1/6=999,14=-1,18=20,19=15,26=3/3(-5);
 2/9=110/2;
 6/7=2,8=2,9=2,10=2,19=2,28=1/1;
 99/9=1/99;
 Leave Link    1 at Tue Jan 10 04:22:01 2017, MaxMem= 13421772800 cpu:         1.7
 (Enter /share/apps//g09/l101.exe)
 -------
 disacch
 -------
 Symbolic Z-matrix:
 Charge =  1 Multiplicity = 1
 C                    -1.87654   0.02504   1.52608 
 C                    -0.65274  -0.43845   2.33396 
 C                     0.5879    0.45841   2.26634 
 C                     0.98898   0.7847    0.80889 
 C                     0.92011  -0.52301  -0.02903 
 C                    -0.24479  -1.42836   0.37772 
 O                    -0.36335  -1.71662   1.69344 
 O                     0.12559   1.7394    0.20165 
 O                     0.2635    1.62904   3.03209 
 O                    -1.58555  -0.47978   0.14773 
 H                    -1.97027   1.11166   1.44068 
 H                    -2.79621  -0.45871   1.87377 
 H                    -0.91973  -0.64943   3.37616 
 H                     1.42252  -0.08047   2.74194 
 H                     2.03321   1.13792   0.79785 
 H                     0.79919  -0.24114  -1.09061 
 H                    -0.3727   -2.32259  -0.24453 
 O                     2.03288  -1.37085   0.18718 
 C                    -2.71515  -1.14838  -0.52 
 H                    -2.37447  -1.38014  -1.53332 
 H                    -3.00093  -2.05102   0.03476 
 H                    -3.53247  -0.42151  -0.5575 
 C                     3.127    -1.14265  -0.72042 
 H                     2.82099  -1.33259  -1.76165 
 H                     3.51868  -0.11696  -0.62971 
 H                     3.9087   -1.8523   -0.43141 
 C                     0.64385   3.07962   0.16637 
 H                     0.6564    3.54154   1.16471 
 H                     1.66032   3.09624  -0.25853 
 H                    -0.02743   3.64907  -0.48619 
 C                     1.35355   2.24287   3.65358 
 O                     2.48636   1.84829   3.49868 
 C                     0.8994    3.39231   4.50048 
 H                     0.57827   3.00512   5.47866 
 H                     0.04606   3.91269   4.05123 
 H                     1.73656   4.07844   4.65936 
 
 NAtoms=     36 NQM=       36 NQMF=       0 NMMI=      0 NMMIF=      0
                NMic=       0 NMicF=      0.
                    Isotopes and Nuclear Properties:
 (Nuclear quadrupole moments (NQMom) in fm**2, nuclear magnetic moments (NMagM)
  in nuclear magnetons)

  Atom         1           2           3           4           5           6           7           8           9          10
 IAtWgt=          12          12          12          12          12          12          16          16          16          16
 AtmWgt=  12.0000000  12.0000000  12.0000000  12.0000000  12.0000000  12.0000000  15.9949146  15.9949146  15.9949146  15.9949146
 NucSpn=           0           0           0           0           0           0           0           0           0           0
 AtZEff=   0.0000000   0.0000000   0.0000000   0.0000000   0.0000000   0.0000000   0.0000000   0.0000000   0.0000000   0.0000000
 NQMom=    0.0000000   0.0000000   0.0000000   0.0000000   0.0000000   0.0000000   0.0000000   0.0000000   0.0000000   0.0000000
 NMagM=    0.0000000   0.0000000   0.0000000   0.0000000   0.0000000   0.0000000   0.0000000   0.0000000   0.0000000   0.0000000
 AtZNuc=   6.0000000   6.0000000   6.0000000   6.0000000   6.0000000   6.0000000   8.0000000   8.0000000   8.0000000   8.0000000

  Atom        11          12          13          14          15          16          17          18          19          20
 IAtWgt=           1           1           1           1           1           1           1          16          12           1
 AtmWgt=   1.0078250   1.0078250   1.0078250   1.0078250   1.0078250   1.0078250   1.0078250  15.9949146  12.0000000   1.0078250
 NucSpn=           1           1           1           1           1           1           1           0           0           1
 AtZEff=   0.0000000   0.0000000   0.0000000   0.0000000   0.0000000   0.0000000   0.0000000   0.0000000   0.0000000   0.0000000
 NQMom=    0.0000000   0.0000000   0.0000000   0.0000000   0.0000000   0.0000000   0.0000000   0.0000000   0.0000000   0.0000000
 NMagM=    2.7928460   2.7928460   2.7928460   2.7928460   2.7928460   2.7928460   2.7928460   0.0000000   0.0000000   2.7928460
 AtZNuc=   1.0000000   1.0000000   1.0000000   1.0000000   1.0000000   1.0000000   1.0000000   8.0000000   6.0000000   1.0000000

  Atom        21          22          23          24          25          26          27          28          29          30
 IAtWgt=           1           1          12           1           1           1          12           1           1           1
 AtmWgt=   1.0078250   1.0078250  12.0000000   1.0078250   1.0078250   1.0078250  12.0000000   1.0078250   1.0078250   1.0078250
 NucSpn=           1           1           0           1           1           1           0           1           1           1
 AtZEff=   0.0000000   0.0000000   0.0000000   0.0000000   0.0000000   0.0000000   0.0000000   0.0000000   0.0000000   0.0000000
 NQMom=    0.0000000   0.0000000   0.0000000   0.0000000   0.0000000   0.0000000   0.0000000   0.0000000   0.0000000   0.0000000
 NMagM=    2.7928460   2.7928460   0.0000000   2.7928460   2.7928460   2.7928460   0.0000000   2.7928460   2.7928460   2.7928460
 AtZNuc=   1.0000000   1.0000000   6.0000000   1.0000000   1.0000000   1.0000000   6.0000000   1.0000000   1.0000000   1.0000000

  Atom        31          32          33          34          35          36
 IAtWgt=          12          16          12           1           1           1
 AtmWgt=  12.0000000  15.9949146  12.0000000   1.0078250   1.0078250   1.0078250
 NucSpn=           0           0           0           1           1           1
 AtZEff=   0.0000000   0.0000000   0.0000000   0.0000000   0.0000000   0.0000000
 NQMom=    0.0000000   0.0000000   0.0000000   0.0000000   0.0000000   0.0000000
 NMagM=    0.0000000   0.0000000   0.0000000   2.7928460   2.7928460   2.7928460
 AtZNuc=   6.0000000   8.0000000   6.0000000   1.0000000   1.0000000   1.0000000
 Leave Link  101 at Tue Jan 10 04:22:01 2017, MaxMem= 13421772800 cpu:         4.8
 (Enter /share/apps//g09/l103.exe)

 GradGradGradGradGradGradGradGradGradGradGradGradGradGradGradGradGradGrad
 Berny optimization.
 Initialization pass.
                           ----------------------------
                           !    Initial Parameters    !
                           ! (Angstroms and Degrees)  !
 --------------------------                            --------------------------
 ! Name  Definition              Value          Derivative Info.                !
 --------------------------------------------------------------------------------
 ! R1    R(1,2)                  1.5379         estimate D2E/DX2                !
 ! R2    R(1,10)                 1.4965         estimate D2E/DX2                !
 ! R3    R(1,11)                 1.094          estimate D2E/DX2                !
 ! R4    R(1,12)                 1.0958         estimate D2E/DX2                !
 ! R5    R(2,3)                  1.5324         estimate D2E/DX2                !
 ! R6    R(2,7)                  1.4587         estimate D2E/DX2                !
 ! R7    R(2,13)                 1.0963         estimate D2E/DX2                !
 ! R8    R(3,4)                  1.5464         estimate D2E/DX2                !
 ! R9    R(3,9)                  1.436          estimate D2E/DX2                !
 ! R10   R(3,14)                 1.1014         estimate D2E/DX2                !
 ! R11   R(4,5)                  1.5547         estimate D2E/DX2                !
 ! R12   R(4,8)                  1.4232         estimate D2E/DX2                !
 ! R13   R(4,15)                 1.1024         estimate D2E/DX2                !
 ! R14   R(5,6)                  1.5304         estimate D2E/DX2                !
 ! R15   R(5,16)                 1.105          estimate D2E/DX2                !
 ! R16   R(5,18)                 1.4156         estimate D2E/DX2                !
 ! R17   R(6,7)                  1.3521         estimate D2E/DX2                !
 ! R18   R(6,10)                 1.6584         estimate D2E/DX2                !
 ! R19   R(6,17)                 1.0969         estimate D2E/DX2                !
 ! R20   R(8,27)                 1.4374         estimate D2E/DX2                !
 ! R21   R(9,31)                 1.3969         estimate D2E/DX2                !
 ! R22   R(10,19)                1.4727         estimate D2E/DX2                !
 ! R23   R(18,23)                1.4398         estimate D2E/DX2                !
 ! R24   R(19,20)                1.0939         estimate D2E/DX2                !
 ! R25   R(19,21)                1.0974         estimate D2E/DX2                !
 ! R26   R(19,22)                1.0944         estimate D2E/DX2                !
 ! R27   R(23,24)                1.1018         estimate D2E/DX2                !
 ! R28   R(23,25)                1.1017         estimate D2E/DX2                !
 ! R29   R(23,26)                1.0946         estimate D2E/DX2                !
 ! R30   R(27,28)                1.1001         estimate D2E/DX2                !
 ! R31   R(27,29)                1.1018         estimate D2E/DX2                !
 ! R32   R(27,30)                1.0958         estimate D2E/DX2                !
 ! R33   R(31,32)                1.2095         estimate D2E/DX2                !
 ! R34   R(31,33)                1.4982         estimate D2E/DX2                !
 ! R35   R(33,34)                1.0999         estimate D2E/DX2                !
 ! R36   R(33,35)                1.0958         estimate D2E/DX2                !
 ! R37   R(33,36)                1.094          estimate D2E/DX2                !
 ! A1    A(2,1,10)             103.1468         estimate D2E/DX2                !
 ! A2    A(2,1,11)             114.1125         estimate D2E/DX2                !
 ! A3    A(2,1,12)             111.601          estimate D2E/DX2                !
 ! A4    A(10,1,11)            106.25           estimate D2E/DX2                !
 ! A5    A(10,1,12)            107.8507         estimate D2E/DX2                !
 ! A6    A(11,1,12)            113.0391         estimate D2E/DX2                !
 ! A7    A(1,2,3)              116.4038         estimate D2E/DX2                !
 ! A8    A(1,2,7)              101.0277         estimate D2E/DX2                !
 ! A9    A(1,2,13)             111.3198         estimate D2E/DX2                !
 ! A10   A(3,2,7)              109.4421         estimate D2E/DX2                !
 ! A11   A(3,2,13)             110.5941         estimate D2E/DX2                !
 ! A12   A(7,2,13)             107.2842         estimate D2E/DX2                !
 ! A13   A(2,3,4)              112.0281         estimate D2E/DX2                !
 ! A14   A(2,3,9)              105.7059         estimate D2E/DX2                !
 ! A15   A(2,3,14)             107.9444         estimate D2E/DX2                !
 ! A16   A(4,3,9)              112.9024         estimate D2E/DX2                !
 ! A17   A(4,3,14)             108.2793         estimate D2E/DX2                !
 ! A18   A(9,3,14)             109.8628         estimate D2E/DX2                !
 ! A19   A(3,4,5)              108.6018         estimate D2E/DX2                !
 ! A20   A(3,4,8)              112.7246         estimate D2E/DX2                !
 ! A21   A(3,4,15)             108.827          estimate D2E/DX2                !
 ! A22   A(5,4,8)              107.9031         estimate D2E/DX2                !
 ! A23   A(5,4,15)             107.823          estimate D2E/DX2                !
 ! A24   A(8,4,15)             110.8192         estimate D2E/DX2                !
 ! A25   A(4,5,6)              112.8352         estimate D2E/DX2                !
 ! A26   A(4,5,16)             107.9433         estimate D2E/DX2                !
 ! A27   A(4,5,18)             112.7466         estimate D2E/DX2                !
 ! A28   A(6,5,16)             108.8412         estimate D2E/DX2                !
 ! A29   A(6,5,18)             101.7383         estimate D2E/DX2                !
 ! A30   A(16,5,18)            112.6772         estimate D2E/DX2                !
 ! A31   A(5,6,7)              116.839          estimate D2E/DX2                !
 ! A32   A(5,6,10)             103.8954         estimate D2E/DX2                !
 ! A33   A(5,6,17)             114.8512         estimate D2E/DX2                !
 ! A34   A(7,6,10)             100.7193         estimate D2E/DX2                !
 ! A35   A(7,6,17)             111.5909         estimate D2E/DX2                !
 ! A36   A(10,6,17)            107.0586         estimate D2E/DX2                !
 ! A37   A(2,7,6)              104.9439         estimate D2E/DX2                !
 ! A38   A(4,8,27)             114.6577         estimate D2E/DX2                !
 ! A39   A(3,9,31)             114.7844         estimate D2E/DX2                !
 ! A40   A(1,10,6)             102.8516         estimate D2E/DX2                !
 ! A41   A(1,10,19)            114.9369         estimate D2E/DX2                !
 ! A42   A(6,10,19)            115.0436         estimate D2E/DX2                !
 ! A43   A(5,18,23)            113.9641         estimate D2E/DX2                !
 ! A44   A(10,19,20)           106.0999         estimate D2E/DX2                !
 ! A45   A(10,19,21)           110.1192         estimate D2E/DX2                !
 ! A46   A(10,19,22)           106.6681         estimate D2E/DX2                !
 ! A47   A(20,19,21)           112.033          estimate D2E/DX2                !
 ! A48   A(20,19,22)           109.9718         estimate D2E/DX2                !
 ! A49   A(21,19,22)           111.6629         estimate D2E/DX2                !
 ! A50   A(18,23,24)           110.9379         estimate D2E/DX2                !
 ! A51   A(18,23,25)           111.4594         estimate D2E/DX2                !
 ! A52   A(18,23,26)           105.8724         estimate D2E/DX2                !
 ! A53   A(24,23,25)           109.6984         estimate D2E/DX2                !
 ! A54   A(24,23,26)           109.6397         estimate D2E/DX2                !
 ! A55   A(25,23,26)           109.1449         estimate D2E/DX2                !
 ! A56   A(8,27,28)            111.9224         estimate D2E/DX2                !
 ! A57   A(8,27,29)            110.8645         estimate D2E/DX2                !
 ! A58   A(8,27,30)            106.1581         estimate D2E/DX2                !
 ! A59   A(28,27,29)           109.4573         estimate D2E/DX2                !
 ! A60   A(28,27,30)           109.2214         estimate D2E/DX2                !
 ! A61   A(29,27,30)           109.1266         estimate D2E/DX2                !
 ! A62   A(9,31,32)            122.0409         estimate D2E/DX2                !
 ! A63   A(9,31,33)            110.6148         estimate D2E/DX2                !
 ! A64   A(32,31,33)           127.342          estimate D2E/DX2                !
 ! A65   A(31,33,34)           108.7312         estimate D2E/DX2                !
 ! A66   A(31,33,35)           111.6315         estimate D2E/DX2                !
 ! A67   A(31,33,36)           109.3476         estimate D2E/DX2                !
 ! A68   A(34,33,35)           107.7219         estimate D2E/DX2                !
 ! A69   A(34,33,36)           108.3624         estimate D2E/DX2                !
 ! A70   A(35,33,36)           110.9533         estimate D2E/DX2                !
 ! D1    D(10,1,2,3)            83.2985         estimate D2E/DX2                !
 ! D2    D(10,1,2,7)           -35.0848         estimate D2E/DX2                !
 ! D3    D(10,1,2,13)         -148.7254         estimate D2E/DX2                !
 ! D4    D(11,1,2,3)           -31.4964         estimate D2E/DX2                !
 ! D5    D(11,1,2,7)          -149.8798         estimate D2E/DX2                !
 ! D6    D(11,1,2,13)           96.4796         estimate D2E/DX2                !
 ! D7    D(12,1,2,3)          -161.1675         estimate D2E/DX2                !
 ! D8    D(12,1,2,7)            80.4492         estimate D2E/DX2                !
 ! D9    D(12,1,2,13)          -33.1914         estimate D2E/DX2                !
 ! D10   D(2,1,10,6)             8.4233         estimate D2E/DX2                !
 ! D11   D(2,1,10,19)          134.2194         estimate D2E/DX2                !
 ! D12   D(11,1,10,6)          128.7587         estimate D2E/DX2                !
 ! D13   D(11,1,10,19)        -105.4452         estimate D2E/DX2                !
 ! D14   D(12,1,10,6)         -109.7661         estimate D2E/DX2                !
 ! D15   D(12,1,10,19)          16.03           estimate D2E/DX2                !
 ! D16   D(1,2,3,4)            -51.3059         estimate D2E/DX2                !
 ! D17   D(1,2,3,9)             72.0517         estimate D2E/DX2                !
 ! D18   D(1,2,3,14)          -170.4283         estimate D2E/DX2                !
 ! D19   D(7,2,3,4)             62.3803         estimate D2E/DX2                !
 ! D20   D(7,2,3,9)           -174.2621         estimate D2E/DX2                !
 ! D21   D(7,2,3,14)           -56.742          estimate D2E/DX2                !
 ! D22   D(13,2,3,4)          -179.6357         estimate D2E/DX2                !
 ! D23   D(13,2,3,9)           -56.2782         estimate D2E/DX2                !
 ! D24   D(13,2,3,14)           61.2419         estimate D2E/DX2                !
 ! D25   D(1,2,7,6)             54.1831         estimate D2E/DX2                !
 ! D26   D(3,2,7,6)            -69.1322         estimate D2E/DX2                !
 ! D27   D(13,2,7,6)           170.8352         estimate D2E/DX2                !
 ! D28   D(2,3,4,5)            -44.7419         estimate D2E/DX2                !
 ! D29   D(2,3,4,8)             74.7705         estimate D2E/DX2                !
 ! D30   D(2,3,4,15)          -161.8686         estimate D2E/DX2                !
 ! D31   D(9,3,4,5)           -163.9469         estimate D2E/DX2                !
 ! D32   D(9,3,4,8)            -44.4344         estimate D2E/DX2                !
 ! D33   D(9,3,4,15)            78.9265         estimate D2E/DX2                !
 ! D34   D(14,3,4,5)            74.183          estimate D2E/DX2                !
 ! D35   D(14,3,4,8)          -166.3045         estimate D2E/DX2                !
 ! D36   D(14,3,4,15)          -42.9436         estimate D2E/DX2                !
 ! D37   D(2,3,9,31)           149.8657         estimate D2E/DX2                !
 ! D38   D(4,3,9,31)           -87.3318         estimate D2E/DX2                !
 ! D39   D(14,3,9,31)           33.6422         estimate D2E/DX2                !
 ! D40   D(3,4,5,6)             37.1168         estimate D2E/DX2                !
 ! D41   D(3,4,5,16)           157.4272         estimate D2E/DX2                !
 ! D42   D(3,4,5,18)           -77.4595         estimate D2E/DX2                !
 ! D43   D(8,4,5,6)            -85.3674         estimate D2E/DX2                !
 ! D44   D(8,4,5,16)            34.9429         estimate D2E/DX2                !
 ! D45   D(8,4,5,18)           160.0563         estimate D2E/DX2                !
 ! D46   D(15,4,5,6)           154.8837         estimate D2E/DX2                !
 ! D47   D(15,4,5,16)          -84.8059         estimate D2E/DX2                !
 ! D48   D(15,4,5,18)           40.3074         estimate D2E/DX2                !
 ! D49   D(3,4,8,27)           100.462          estimate D2E/DX2                !
 ! D50   D(5,4,8,27)          -139.6218         estimate D2E/DX2                !
 ! D51   D(15,4,8,27)          -21.7846         estimate D2E/DX2                !
 ! D52   D(4,5,6,7)            -51.0947         estimate D2E/DX2                !
 ! D53   D(4,5,6,10)            58.7769         estimate D2E/DX2                !
 ! D54   D(4,5,6,17)           175.3674         estimate D2E/DX2                !
 ! D55   D(16,5,6,7)          -170.889          estimate D2E/DX2                !
 ! D56   D(16,5,6,10)          -61.0174         estimate D2E/DX2                !
 ! D57   D(16,5,6,17)           55.5731         estimate D2E/DX2                !
 ! D58   D(18,5,6,7)            69.9694         estimate D2E/DX2                !
 ! D59   D(18,5,6,10)          179.8409         estimate D2E/DX2                !
 ! D60   D(18,5,6,17)          -63.5686         estimate D2E/DX2                !
 ! D61   D(4,5,18,23)          -91.0693         estimate D2E/DX2                !
 ! D62   D(6,5,18,23)          147.8049         estimate D2E/DX2                !
 ! D63   D(16,5,18,23)          31.4262         estimate D2E/DX2                !
 ! D64   D(5,6,7,2)             64.7988         estimate D2E/DX2                !
 ! D65   D(10,6,7,2)           -46.8988         estimate D2E/DX2                !
 ! D66   D(17,6,7,2)          -160.2274         estimate D2E/DX2                !
 ! D67   D(5,6,10,1)           -98.4968         estimate D2E/DX2                !
 ! D68   D(5,6,10,19)          135.7761         estimate D2E/DX2                !
 ! D69   D(7,6,10,1)            22.848          estimate D2E/DX2                !
 ! D70   D(7,6,10,19)         -102.8791         estimate D2E/DX2                !
 ! D71   D(17,6,10,1)          139.581          estimate D2E/DX2                !
 ! D72   D(17,6,10,19)          13.8539         estimate D2E/DX2                !
 ! D73   D(4,8,27,28)          -71.4501         estimate D2E/DX2                !
 ! D74   D(4,8,27,29)           51.0744         estimate D2E/DX2                !
 ! D75   D(4,8,27,30)          169.4666         estimate D2E/DX2                !
 ! D76   D(3,9,31,32)            3.417          estimate D2E/DX2                !
 ! D77   D(3,9,31,33)         -176.0688         estimate D2E/DX2                !
 ! D78   D(1,10,19,20)         175.3576         estimate D2E/DX2                !
 ! D79   D(1,10,19,21)         -63.2052         estimate D2E/DX2                !
 ! D80   D(1,10,19,22)          58.1309         estimate D2E/DX2                !
 ! D81   D(6,10,19,20)         -65.4333         estimate D2E/DX2                !
 ! D82   D(6,10,19,21)          56.0038         estimate D2E/DX2                !
 ! D83   D(6,10,19,22)         177.34           estimate D2E/DX2                !
 ! D84   D(5,18,23,24)         -61.7035         estimate D2E/DX2                !
 ! D85   D(5,18,23,25)          60.8569         estimate D2E/DX2                !
 ! D86   D(5,18,23,26)         179.42           estimate D2E/DX2                !
 ! D87   D(9,31,33,34)          83.5282         estimate D2E/DX2                !
 ! D88   D(9,31,33,35)         -35.173          estimate D2E/DX2                !
 ! D89   D(9,31,33,36)        -158.3324         estimate D2E/DX2                !
 ! D90   D(32,31,33,34)        -95.9235         estimate D2E/DX2                !
 ! D91   D(32,31,33,35)        145.3753         estimate D2E/DX2                !
 ! D92   D(32,31,33,36)         22.2158         estimate D2E/DX2                !
 --------------------------------------------------------------------------------
 Trust Radius=3.00D-01 FncErr=1.00D-07 GrdErr=1.00D-06
 Number of steps in this run=    216 maximum allowed number of steps=    216.
 GradGradGradGradGradGradGradGradGradGradGradGradGradGradGradGradGradGrad

 Leave Link  103 at Tue Jan 10 04:22:02 2017, MaxMem= 13421772800 cpu:         0.2
 (Enter /share/apps//g09/l202.exe)
                          Input orientation:                          
 ---------------------------------------------------------------------
 Center     Atomic      Atomic             Coordinates (Angstroms)
 Number     Number       Type             X           Y           Z
 ---------------------------------------------------------------------
      1          6           0       -1.876540    0.025040    1.526080
      2          6           0       -0.652740   -0.438450    2.333960
      3          6           0        0.587900    0.458410    2.266340
      4          6           0        0.988980    0.784700    0.808890
      5          6           0        0.920110   -0.523010   -0.029030
      6          6           0       -0.244790   -1.428360    0.377720
      7          8           0       -0.363350   -1.716620    1.693440
      8          8           0        0.125590    1.739400    0.201650
      9          8           0        0.263500    1.629040    3.032090
     10          8           0       -1.585550   -0.479780    0.147730
     11          1           0       -1.970270    1.111660    1.440680
     12          1           0       -2.796210   -0.458710    1.873770
     13          1           0       -0.919730   -0.649430    3.376160
     14          1           0        1.422520   -0.080470    2.741940
     15          1           0        2.033210    1.137920    0.797850
     16          1           0        0.799190   -0.241140   -1.090610
     17          1           0       -0.372700   -2.322590   -0.244530
     18          8           0        2.032880   -1.370850    0.187180
     19          6           0       -2.715150   -1.148380   -0.520000
     20          1           0       -2.374470   -1.380140   -1.533320
     21          1           0       -3.000930   -2.051020    0.034760
     22          1           0       -3.532470   -0.421510   -0.557500
     23          6           0        3.127000   -1.142650   -0.720420
     24          1           0        2.820990   -1.332590   -1.761650
     25          1           0        3.518680   -0.116960   -0.629710
     26          1           0        3.908700   -1.852300   -0.431410
     27          6           0        0.643850    3.079620    0.166370
     28          1           0        0.656400    3.541540    1.164710
     29          1           0        1.660320    3.096240   -0.258530
     30          1           0       -0.027430    3.649070   -0.486190
     31          6           0        1.353550    2.242870    3.653580
     32          8           0        2.486360    1.848290    3.498680
     33          6           0        0.899400    3.392310    4.500480
     34          1           0        0.578270    3.005120    5.478660
     35          1           0        0.046060    3.912690    4.051230
     36          1           0        1.736560    4.078440    4.659360
 ---------------------------------------------------------------------
                    Distance matrix (angstroms):
                    1          2          3          4          5
     1  C    0.000000
     2  C    1.537914   0.000000
     3  C    2.609456   1.532357   0.000000
     4  C    3.050025   2.552877   1.546445   0.000000
     5  C    3.246533   2.839847   2.518387   1.554657   0.000000
     6  C    2.468544   2.230072   2.796455   2.570162   1.530391
     7  O    2.313252   1.458674   2.442099   2.977890   2.457413
     8  O    2.949859   3.145723   2.473380   1.423248   2.408936
     9  O    3.069308   2.366727   1.435961   2.486333   3.799067
    10  O    1.496452   2.377277   3.176884   2.943509   2.512259
    11  H    1.093993   2.221863   2.766348   3.043554   3.631321
    12  H    1.095762   2.192407   3.528090   4.124039   4.175622
    13  H    2.189336   1.096347   2.175306   3.505821   3.872507
    14  H    3.517562   2.145064   1.101443   2.161749   2.850707
    15  H    4.129766   3.472593   2.169589   1.102408   2.163657
    16  H    3.751993   3.724877   3.435568   2.167134   1.105000
    17  H    3.302720   3.205779   3.867969   3.552340   2.226272
    18  O    4.361734   3.562385   3.123630   2.474398   1.415569
    19  C    2.503323   3.592022   4.610380   4.384441   3.721190
    20  H    3.403292   4.336703   5.156871   4.635221   3.721803
    21  H    2.792546   3.660697   4.914966   4.955801   4.208734
    22  H    2.698669   4.080891   5.072059   4.874985   4.484981
    23  C    5.607644   4.910353   4.234520   3.259539   2.394230
    24  H    5.892293   5.444291   4.941566   3.800902   2.696430
    25  H    5.811712   5.127128   4.160244   3.046628   2.697825
    26  H    6.389458   5.518422   4.862607   4.125152   3.295541
    27  C    4.187080   4.330867   3.359129   2.408029   3.618486
    28  H    4.348810   4.349864   3.274748   2.799533   4.244423
    29  H    5.012632   4.956338   3.805680   2.633116   3.701291
    30  H    4.538946   5.005205   4.258564   3.303776   4.302683
    31  C    4.458532   3.599455   2.386410   3.217364   4.625968
    32  O    5.123503   4.054590   2.656046   3.257045   4.530004
    33  C    5.281231   4.666655   3.700835   4.520563   5.987205
    34  H    5.525383   4.823142   4.099369   5.187070   6.549748
    35  H    5.018625   4.729668   3.925745   4.602846   6.089985
    36  H    6.269130   5.614137   4.488940   5.121886   6.619738
                    6          7          8          9         10
     6  C    0.000000
     7  O    1.352135   0.000000
     8  O    3.194196   3.795863   0.000000
     9  O    4.080654   3.657645   2.835946   0.000000
    10  O    1.658414   2.326535   2.802796   4.023138   0.000000
    11  H    3.249441   3.262706   2.514335   2.791056   2.086243
    12  H    3.112576   2.744752   4.020521   3.881009   2.108401
    13  H    3.170634   2.068816   4.108128   2.590336   3.300736
    14  H    3.191593   2.639256   3.383346   2.085651   3.992225
    15  H    3.457107   3.833273   2.087162   2.892214   4.016844
    16  H    2.157633   3.358493   2.458905   4.558639   2.697669
    17  H    1.096906   2.030521   4.116689   5.172656   2.240719
    18  O    2.286349   2.851367   3.648509   4.497061   3.726741
    19  C    2.643287   3.279204   4.114591   5.404050   1.472714
    20  H    2.861806   3.817041   4.357976   6.070998   2.063728
    21  H    2.846337   3.133667   4.916326   5.760498   2.117748
    22  H    3.563316   4.097238   4.315929   5.612424   2.071531
    23  C    3.557599   4.282371   4.262029   5.473868   4.837480
    24  H    3.739663   4.714355   4.533966   6.188049   4.877562
    25  H    4.110765   4.798551   3.956045   5.201297   5.175830
    26  H    4.252752   4.773239   5.254807   6.115803   5.692627
    27  C    4.599591   5.133256   1.437368   3.234378   4.199988
    28  H    5.111888   5.382164   2.111150   2.701691   4.715040
    29  H    4.950380   5.573962   2.099566   3.864190   4.846508
    30  H    5.154986   5.801229   2.035529   4.067365   4.458362
    31  C    5.173382   4.739985   3.698268   1.396870   5.323731
    32  O    5.285452   4.907986   4.056538   2.281860   5.764480
    33  C    6.445555   5.964493   4.670207   2.381105   6.333600
    34  H    6.808286   6.124489   5.445530   2.824603   6.726475
    35  H    6.488920   6.116856   4.421400   2.510176   6.098627
    36  H    7.251416   6.840250   5.285595   3.288993   7.222783
                   11         12         13         14         15
    11  H    0.000000
    12  H    1.826419   0.000000
    13  H    2.819779   2.411375   0.000000
    14  H    3.824327   4.323710   2.492406   0.000000
    15  H    4.054846   5.199051   4.308382   2.374216   0.000000
    16  H    3.988409   4.664953   4.803480   3.886231   2.644030
    17  H    4.145629   3.719495   4.025929   4.143540   4.341669
    18  O    4.874354   5.195834   4.405445   2.926503   2.582023
    19  C    3.083325   2.492459   4.318859   5.375965   5.432386
    20  H    3.900913   3.554597   5.172350   5.863798   5.585931
    21  H    3.611290   2.441172   4.178612   5.547865   6.007846
    22  H    2.963748   2.540578   4.727794   5.962763   5.936800
    23  C    5.977828   6.502462   5.779382   4.002676   2.950003
    24  H    6.259828   6.747806   6.391931   4.879123   3.643495
    25  H    5.993713   6.801620   6.002500   3.970295   2.412317
    26  H    6.844857   7.225771   6.265638   4.403478   3.737641
    27  C    3.511461   5.221973   5.162688   4.150428   2.469673
    28  H    3.588854   5.331537   4.993889   4.024121   2.794205
    29  H    4.472925   6.086463   5.822171   4.376169   2.256103
    30  H    3.731743   5.487204   5.847311   5.141269   3.492974
    31  C    4.150222   5.261822   3.689195   2.496749   3.136566
    32  O    4.963823   5.989001   4.225525   2.329061   2.829214
    33  C    4.774803   5.948739   4.572635   3.927635   4.480766
    34  H    5.136685   6.031622   4.474399   4.209900   5.245309
    35  H    4.327393   5.650572   4.711837   4.422014   4.715145
    36  H    5.736050   6.992228   5.572722   4.590387   4.862707
                   16         17         18         19         20
    16  H    0.000000
    17  H    2.534090   0.000000
    18  O    2.104990   2.622784   0.000000
    19  C    3.674135   2.634715   4.805558   0.000000
    20  H    3.400799   2.560522   4.731273   1.093889   0.000000
    21  H    4.356953   2.656943   5.081841   1.097355   1.816977
    22  H    4.368068   3.700838   5.694639   1.094421   1.792250
    23  C    2.523581   3.723792   1.439761   5.845590   5.566272
    24  H    2.393582   3.671704   2.102503   5.676660   5.200692
    25  H    2.761064   4.489544   2.108827   6.319533   6.094370
    26  H    3.563626   4.311204   2.033015   6.661737   6.396512
    27  C    3.554093   5.512358   4.662244   5.443342   5.647005
    28  H    4.406305   6.118253   5.194404   6.016722   6.378752
    29  H    3.545703   5.787667   4.504703   6.101631   6.159756
    30  H    4.022730   5.986513   5.467897   5.499137   5.647834
    31  C    5.383768   6.246489   5.053354   6.743417   7.343587
    32  O    5.317315   6.291430   4.640532   7.223955   7.705287
    33  C    6.668755   7.536142   6.525107   7.673855   8.360697
    34  H    7.330915   7.876785   7.018886   8.005130   8.781631
    35  H    6.652821   7.583379   6.840624   7.357639   8.065991
    36  H    7.252557   8.334885   7.055704   8.600183   9.222036
                   21         22         23         24         25
    21  H    0.000000
    22  H    1.813452   0.000000
    23  C    6.240750   6.700383   0.000000
    24  H    6.134980   6.530429   1.101762   0.000000
    25  H    6.832820   7.058093   1.101672   1.801615   0.000000
    26  H    6.928188   7.578527   1.094616   1.795202   1.789649
    27  C    6.294856   5.497595   4.977951   5.284392   4.372244
    28  H    6.777136   6.018173   5.621318   6.083270   4.979680
    29  H    6.950364   6.279253   4.509177   4.818823   3.730406
    30  H    6.450125   5.372152   5.741591   5.878540   5.174792
    31  C    7.105973   6.978919   5.808506   6.652970   5.348192
    32  O    7.570582   7.604663   5.211233   6.156383   4.687376
    33  C    8.048917   7.731097   7.265388   8.076600   6.744958
    34  H    8.246895   8.066920   7.882171   8.733133   7.463617
    35  H    7.809098   7.268532   7.603769   8.306791   7.085786
    36  H    9.022251   8.673399   7.624640   8.466676   6.982234
                   26         27         28         29         30
    26  H    0.000000
    27  C    5.944781   0.000000
    28  H    6.497581   1.100096   0.000000
    29  H    5.438120   1.101829   1.797710   0.000000
    30  H    6.764702   1.095776   1.790156   1.790517   0.000000
    31  C    6.323476   3.655743   2.892583   4.015838   4.584997
    32  O    5.582385   4.001913   3.415152   4.044298   5.043921
    33  C    7.802907   4.352883   3.347937   4.828544   5.078564
    34  H    8.343574   5.313217   4.347875   5.839048   6.030007
    35  H    8.261305   4.017897   2.973595   4.674019   4.545666
    36  H    8.112201   4.730604   3.696970   5.015593   5.456437
                   31         32         33         34         35
    31  C    0.000000
    32  O    1.209523   0.000000
    33  C    1.498234   2.430235   0.000000
    34  H    2.124383   2.983184   1.099944   0.000000
    35  H    2.157766   3.243782   1.095815   1.773270   0.000000
    36  H    2.127817   2.623537   1.094008   1.779018   1.804186
                   36
    36  H    0.000000
 Stoichiometry    C11H19O6(1+)
 Framework group  C1[X(C11H19O6)]
 Deg. of freedom   102
 Full point group                 C1      NOp   1
 Largest Abelian subgroup         C1      NOp   1
 Largest concise Abelian subgroup C1      NOp   1
                         Standard orientation:                         
 ---------------------------------------------------------------------
 Center     Atomic      Atomic             Coordinates (Angstroms)
 Number     Number       Type             X           Y           Z
 ---------------------------------------------------------------------
      1          6           0       -0.880622   -2.087369   -0.139505
      2          6           0       -0.282675   -1.138465   -1.191749
      3          6           0        0.705548   -0.086358   -0.677351
      4          6           0        0.131951    0.714251    0.514916
      5          6           0       -1.334944    1.110671    0.186238
      6          6           0       -2.087183    0.020574   -0.580521
      7          8           0       -1.484789   -0.475449   -1.684764
      8          8           0        0.122199   -0.033809    1.725679
      9          8           0        1.901551   -0.807190   -0.342745
     10          8           0       -2.017088   -1.295240    0.426483
     11          1           0       -0.211457   -2.304300    0.698339
     12          1           0       -1.297071   -2.989983   -0.600540
     13          1           0        0.149540   -1.695673   -2.031205
     14          1           0        0.910407    0.617428   -1.499480
     15          1           0        0.714119    1.642951    0.632814
     16          1           0       -1.858080    1.301300    1.140708
     17          1           0       -3.148399    0.232087   -0.760205
     18          8           0       -1.418977    2.203270   -0.709865
     19          6           0       -3.280602   -2.037967    0.570623
     20          1           0       -3.977558   -1.357266    1.068107
     21          1           0       -3.646742   -2.354661   -0.414178
     22          1           0       -3.068958   -2.894873    1.217675
     23          6           0       -1.480717    3.487534   -0.061971
     24          1           0       -2.379471    3.566713    0.570368
     25          1           0       -0.581345    3.676042    0.545710
     26          1           0       -1.531247    4.227060   -0.867411
     27          6           0        1.201110    0.268452    2.626022
     28          1           0        2.164668   -0.110444    2.254263
     29          1           0        1.275626    1.354103    2.798750
     30          1           0        0.958080   -0.229651    3.571303
     31          6           0        3.084422   -0.078519   -0.488011
     32          8           0        3.084388    1.087713   -0.808709
     33          6           0        4.274886   -0.943907   -0.207647
     34          1           0        4.525939   -1.505495   -1.119496
     35          1           0        4.067869   -1.671069    0.585569
     36          1           0        5.128757   -0.312009    0.054006
 ---------------------------------------------------------------------
 Rotational constants (GHZ):      0.6308442      0.3738320      0.3163614
 Leave Link  202 at Tue Jan 10 04:22:02 2017, MaxMem= 13421772800 cpu:         0.6
 (Enter /share/apps//g09/l301.exe)
 Standard basis: 6-311+G(d,p) (5D, 7F)
 Ernie: Thresh=  0.10000D-02 Tol=  0.10000D-05 Strict=F.
 There are   505 symmetry adapted cartesian basis functions of A   symmetry.
 There are   488 symmetry adapted basis functions of A   symmetry.
   488 basis functions,   764 primitive gaussians,   505 cartesian basis functions
    66 alpha electrons       66 beta electrons
       nuclear repulsion energy      1437.9930384209 Hartrees.
 IExCor= 1009 DFT=T Ex+Corr=PBE1PBE ExCW=0 ScaHFX=  0.250000
 ScaDFX=  0.750000  0.750000  1.000000  1.000000 ScalE2=  1.000000  1.000000
 IRadAn=      0 IRanWt=     -1 IRanGd=            0 ICorTp=0 IEmpDi=131
 NAtoms=   36 NActive=   36 NUniq=   36 SFac= 1.00D+00 NAtFMM=   60 NAOKFM=F Big=F
 Integral buffers will be    131072 words long.
 Raffenetti 2 integral format.
 Two-electron integral symmetry is turned on.
 R6Disp:  Grimme-D3 Dispersion energy=       -0.0255856881 Hartrees.
 Nuclear repulsion after empirical dispersion term =     1437.9674527329 Hartrees.
 Leave Link  301 at Tue Jan 10 04:22:02 2017, MaxMem= 13421772800 cpu:         1.4
 (Enter /share/apps//g09/l302.exe)
 NPDir=0 NMtPBC=     1 NCelOv=     1 NCel=       1 NClECP=     1 NCelD=      1
         NCelK=      1 NCelE2=     1 NClLst=     1 CellRange=     0.0.
 One-electron integrals computed using PRISM.
 NBasis=   488 RedAO= T EigKep=  2.58D-06  NBF=   488
 NBsUse=   488 1.00D-06 EigRej= -1.00D+00 NBFU=   488
 Precomputing XC quadrature grid using
 IXCGrd= 4 IRadAn=           0 IRanWt=          -1 IRanGd=           0 AccXCQ= 0.00D+00.
 Generated NRdTot=       0 NPtTot=           0 NUsed=           0 NTot=          32
 NSgBfM=   504   504   504   504   504 MxSgAt=    36 MxSgA2=    36.
 Leave Link  302 at Tue Jan 10 04:22:03 2017, MaxMem= 13421772800 cpu:        12.2
 (Enter /share/apps//g09/l303.exe)
 DipDrv:  MaxL=1.
 Leave Link  303 at Tue Jan 10 04:22:03 2017, MaxMem= 13421772800 cpu:         7.3
 (Enter /share/apps//g09/l401.exe)
 ExpMin= 4.38D-02 ExpMax= 8.59D+03 ExpMxC= 1.30D+03 IAcc=2 IRadAn=         4 AccDes= 0.00D+00
 Harris functional with IExCor= 1009 and IRadAn=       4 diagonalized for initial guess.
 HarFok:  IExCor= 1009 AccDes= 0.00D+00 IRadAn=         4 IDoV= 1 UseB2=F ITyADJ=14
 ICtDFT=  3500011 ScaDFX=  1.000000  1.000000  1.000000  1.000000
 FoFCou: FMM=F IPFlag=           0 FMFlag=      100000 FMFlg1=           0
         NFxFlg=           0 DoJE=T BraDBF=F KetDBF=T FulRan=T
         wScrn=  0.000000 ICntrl=     500 IOpCl=  0 I1Cent=   200000004 NGrid=           0
         NMat0=    1 NMatS0=      1 NMatT0=    0 NMatD0=    1 NMtDS0=    0 NMtDT0=    0
 Petite list used in FoFCou.
 Harris En= -881.099437771697    
 JPrj=0 DoOrth=F DoCkMO=F.
 Leave Link  401 at Tue Jan 10 04:22:06 2017, MaxMem= 13421772800 cpu:        42.2
 (Enter /share/apps//g09/l502.exe)
 Closed shell SCF:
 Using DIIS extrapolation, IDIIS=  1040.
 Integral symmetry usage will be decided dynamically.
 Keep R1 ints in memory in canonical form, NReq=7183787934.
 IVT=      797493 IEndB=      797493 NGot= 13421772800 MDV=  6302761722
 LenX=  6302761722 LenY=  6302506192
 Requested convergence on RMS density matrix=1.00D-08 within 128 cycles.
 Requested convergence on MAX density matrix=1.00D-06.
 Requested convergence on             energy=1.00D-06.
 No special actions if energy rises.
 FoFCou: FMM=F IPFlag=           0 FMFlag=           0 FMFlg1=           0
         NFxFlg=           0 DoJE=F BraDBF=F KetDBF=F FulRan=T
         wScrn=  0.000000 ICntrl=     600 IOpCl=  0 I1Cent=           0 NGrid=           0
         NMat0=    1 NMatS0= 119316 NMatT0=    0 NMatD0=    1 NMtDS0=    0 NMtDT0=    0
 Symmetry not used in FoFCou.

 Cycle   1  Pass 1  IDiag  1:
 E= -880.620290037058    
 DIIS: error= 1.73D-02 at cycle   1 NSaved=   1.
 NSaved= 1 IEnMin= 1 EnMin= -880.620290037058     IErMin= 1 ErrMin= 1.73D-02
 ErrMax= 1.73D-02  0.00D+00 EMaxC= 1.00D-01 BMatC= 4.02D-01 BMatP= 4.02D-01
 IDIUse=3 WtCom= 8.27D-01 WtEn= 1.73D-01
 Coeff-Com:  0.100D+01
 Coeff-En:   0.100D+01
 Coeff:      0.100D+01
 Gap=     0.253 Goal=   None    Shift=    0.000
 GapD=    0.253 DampG=1.000 DampE=0.500 DampFc=0.5000 IDamp=-1.
 Damping current iteration by 5.00D-01
 RMSDP=8.67D-03 MaxDP=9.56D-01              OVMax= 2.55D-01

 Cycle   2  Pass 1  IDiag  1:
 E= -880.726109646733     Delta-E=       -0.105819609675 Rises=F Damp=T
 DIIS: error= 9.08D-03 at cycle   2 NSaved=   2.
 NSaved= 2 IEnMin= 2 EnMin= -880.726109646733     IErMin= 2 ErrMin= 9.08D-03
 ErrMax= 9.08D-03  0.00D+00 EMaxC= 1.00D-01 BMatC= 5.44D-02 BMatP= 4.02D-01
 IDIUse=3 WtCom= 9.09D-01 WtEn= 9.08D-02
 Coeff-Com:  0.118D+00 0.882D+00
 Coeff-En:   0.232D+00 0.768D+00
 Coeff:      0.129D+00 0.871D+00
 Gap=     0.297 Goal=   None    Shift=    0.000
 RMSDP=4.09D-03 MaxDP=8.68D-01 DE=-1.06D-01 OVMax= 1.44D-01

 Cycle   3  Pass 1  IDiag  1:
 E= -880.868543106805     Delta-E=       -0.142433460072 Rises=F Damp=F
 DIIS: error= 1.30D-02 at cycle   3 NSaved=   3.
 NSaved= 3 IEnMin= 3 EnMin= -880.868543106805     IErMin= 2 ErrMin= 9.08D-03
 ErrMax= 1.30D-02  0.00D+00 EMaxC= 1.00D-01 BMatC= 6.07D-02 BMatP= 5.44D-02
 IDIUse=2 WtCom= 0.00D+00 WtEn= 1.00D+00
 Coeff-En:   0.000D+00 0.000D+00 0.100D+01
 Coeff:      0.000D+00 0.000D+00 0.100D+01
 Gap=     0.242 Goal=   None    Shift=    0.000
 RMSDP=3.17D-03 MaxDP=1.85D-01 DE=-1.42D-01 OVMax= 1.93D-01

 Cycle   4  Pass 1  IDiag  1:
 E= -880.686407614672     Delta-E=        0.182135492133 Rises=F Damp=F
 DIIS: error= 3.14D-02 at cycle   4 NSaved=   4.
 NSaved= 4 IEnMin= 3 EnMin= -880.868543106805     IErMin= 2 ErrMin= 9.08D-03
 ErrMax= 3.14D-02  0.00D+00 EMaxC= 1.00D-01 BMatC= 3.07D-01 BMatP= 5.44D-02
 IDIUse=2 WtCom= 0.00D+00 WtEn= 1.00D+00
 Coeff-En:   0.000D+00 0.000D+00 0.782D+00 0.218D+00
 Coeff:      0.000D+00 0.000D+00 0.782D+00 0.218D+00
 Gap=     0.236 Goal=   None    Shift=    0.000
 RMSDP=1.93D-03 MaxDP=2.41D-01 DE= 1.82D-01 OVMax= 1.03D-01

 Cycle   5  Pass 1  IDiag  1:
 E= -880.898427712001     Delta-E=       -0.212020097329 Rises=F Damp=F
 DIIS: error= 7.35D-03 at cycle   5 NSaved=   5.
 NSaved= 5 IEnMin= 5 EnMin= -880.898427712001     IErMin= 5 ErrMin= 7.35D-03
 ErrMax= 7.35D-03  0.00D+00 EMaxC= 1.00D-01 BMatC= 2.11D-02 BMatP= 5.44D-02
 IDIUse=3 WtCom= 9.27D-01 WtEn= 7.35D-02
 Coeff-Com:  0.511D-02 0.676D-02 0.343D+00-0.236D-01 0.669D+00
 Coeff-En:   0.000D+00 0.000D+00 0.302D+00 0.000D+00 0.698D+00
 Coeff:      0.474D-02 0.626D-02 0.340D+00-0.219D-01 0.671D+00
 Gap=     0.259 Goal=   None    Shift=    0.000
 RMSDP=7.48D-04 MaxDP=8.75D-02 DE=-2.12D-01 OVMax= 2.75D-02

 Cycle   6  Pass 1  IDiag  1:
 E= -880.913739308750     Delta-E=       -0.015311596750 Rises=F Damp=F
 DIIS: error= 5.64D-04 at cycle   6 NSaved=   6.
 NSaved= 6 IEnMin= 6 EnMin= -880.913739308750     IErMin= 6 ErrMin= 5.64D-04
 ErrMax= 5.64D-04  0.00D+00 EMaxC= 1.00D-01 BMatC= 2.48D-04 BMatP= 2.11D-02
 IDIUse=3 WtCom= 9.94D-01 WtEn= 5.64D-03
 Coeff-Com: -0.494D-03 0.420D-02 0.141D+00-0.483D-01 0.427D+00 0.477D+00
 Coeff-En:   0.000D+00 0.000D+00 0.000D+00 0.000D+00 0.000D+00 0.100D+01
 Coeff:     -0.491D-03 0.417D-02 0.140D+00-0.481D-01 0.424D+00 0.480D+00
 Gap=     0.245 Goal=   None    Shift=    0.000
 RMSDP=1.41D-04 MaxDP=2.03D-02 DE=-1.53D-02 OVMax= 2.31D-03

 Cycle   7  Pass 1  IDiag  1:
 E= -880.913908175518     Delta-E=       -0.000168866768 Rises=F Damp=F
 DIIS: error= 9.73D-05 at cycle   7 NSaved=   7.
 NSaved= 7 IEnMin= 7 EnMin= -880.913908175518     IErMin= 7 ErrMin= 9.73D-05
 ErrMax= 9.73D-05  0.00D+00 EMaxC= 1.00D-01 BMatC= 1.16D-05 BMatP= 2.48D-04
 IDIUse=1 WtCom= 1.00D+00 WtEn= 0.00D+00
 Coeff-Com: -0.639D-03 0.171D-02 0.568D-01-0.270D-01 0.196D+00 0.251D+00
 Coeff-Com:  0.522D+00
 Coeff:     -0.639D-03 0.171D-02 0.568D-01-0.270D-01 0.196D+00 0.251D+00
 Coeff:      0.522D+00
 Gap=     0.244 Goal=   None    Shift=    0.000
 RMSDP=2.52D-05 MaxDP=3.53D-03 DE=-1.69D-04 OVMax= 3.64D-04

 Cycle   8  Pass 1  IDiag  1:
 E= -880.913915938044     Delta-E=       -0.000007762525 Rises=F Damp=F
 DIIS: error= 4.00D-05 at cycle   8 NSaved=   8.
 NSaved= 8 IEnMin= 8 EnMin= -880.913915938044     IErMin= 8 ErrMin= 4.00D-05
 ErrMax= 4.00D-05  0.00D+00 EMaxC= 1.00D-01 BMatC= 1.05D-06 BMatP= 1.16D-05
 IDIUse=1 WtCom= 1.00D+00 WtEn= 0.00D+00
 Coeff-Com:  0.951D-04-0.356D-03 0.700D-02-0.443D-02 0.249D-01 0.332D-01
 Coeff-Com:  0.236D+00 0.703D+00
 Coeff:      0.951D-04-0.356D-03 0.700D-02-0.443D-02 0.249D-01 0.332D-01
 Coeff:      0.236D+00 0.703D+00
 Gap=     0.244 Goal=   None    Shift=    0.000
 RMSDP=9.29D-06 MaxDP=1.90D-03 DE=-7.76D-06 OVMax= 1.69D-04

 Cycle   9  Pass 1  IDiag  1:
 E= -880.913916712046     Delta-E=       -0.000000774002 Rises=F Damp=F
 DIIS: error= 7.20D-06 at cycle   9 NSaved=   9.
 NSaved= 9 IEnMin= 9 EnMin= -880.913916712046     IErMin= 9 ErrMin= 7.20D-06
 ErrMax= 7.20D-06  0.00D+00 EMaxC= 1.00D-01 BMatC= 5.27D-08 BMatP= 1.05D-06
 IDIUse=1 WtCom= 1.00D+00 WtEn= 0.00D+00
 Coeff-Com:  0.853D-04-0.304D-03 0.121D-02-0.987D-03 0.408D-02 0.461D-02
 Coeff-Com:  0.897D-01 0.339D+00 0.562D+00
 Coeff:      0.853D-04-0.304D-03 0.121D-02-0.987D-03 0.408D-02 0.461D-02
 Coeff:      0.897D-01 0.339D+00 0.562D+00
 Gap=     0.244 Goal=   None    Shift=    0.000
 RMSDP=2.51D-06 MaxDP=2.66D-04 DE=-7.74D-07 OVMax= 3.06D-05

 Cycle  10  Pass 1  IDiag  1:
 E= -880.913916753220     Delta-E=       -0.000000041175 Rises=F Damp=F
 DIIS: error= 2.48D-06 at cycle  10 NSaved=  10.
 NSaved=10 IEnMin=10 EnMin= -880.913916753220     IErMin=10 ErrMin= 2.48D-06
 ErrMax= 2.48D-06  0.00D+00 EMaxC= 1.00D-01 BMatC= 4.48D-09 BMatP= 5.27D-08
 IDIUse=1 WtCom= 1.00D+00 WtEn= 0.00D+00
 Coeff-Com:  0.130D-04-0.535D-04-0.380D-03 0.355D-04-0.105D-02-0.198D-02
 Coeff-Com:  0.799D-02 0.556D-01 0.246D+00 0.693D+00
 Coeff:      0.130D-04-0.535D-04-0.380D-03 0.355D-04-0.105D-02-0.198D-02
 Coeff:      0.799D-02 0.556D-01 0.246D+00 0.693D+00
 Gap=     0.244 Goal=   None    Shift=    0.000
 RMSDP=5.85D-07 MaxDP=4.61D-05 DE=-4.12D-08 OVMax= 1.02D-05

 Cycle  11  Pass 1  IDiag  1:
 E= -880.913916756755     Delta-E=       -0.000000003535 Rises=F Damp=F
 DIIS: error= 5.95D-07 at cycle  11 NSaved=  11.
 NSaved=11 IEnMin=11 EnMin= -880.913916756755     IErMin=11 ErrMin= 5.95D-07
 ErrMax= 5.95D-07  0.00D+00 EMaxC= 1.00D-01 BMatC= 4.63D-10 BMatP= 4.48D-09
 IDIUse=1 WtCom= 1.00D+00 WtEn= 0.00D+00
 Coeff-Com: -0.510D-06-0.300D-05-0.323D-03 0.108D-03-0.958D-03-0.149D-02
 Coeff-Com: -0.298D-02 0.369D-02 0.810D-01 0.330D+00 0.591D+00
 Coeff:     -0.510D-06-0.300D-05-0.323D-03 0.108D-03-0.958D-03-0.149D-02
 Coeff:     -0.298D-02 0.369D-02 0.810D-01 0.330D+00 0.591D+00
 Gap=     0.244 Goal=   None    Shift=    0.000
 RMSDP=1.57D-07 MaxDP=1.07D-05 DE=-3.54D-09 OVMax= 4.13D-06

 Cycle  12  Pass 1  IDiag  1:
 E= -880.913916757119     Delta-E=       -0.000000000363 Rises=F Damp=F
 DIIS: error= 2.84D-07 at cycle  12 NSaved=  12.
 NSaved=12 IEnMin=12 EnMin= -880.913916757119     IErMin=12 ErrMin= 2.84D-07
 ErrMax= 2.84D-07  0.00D+00 EMaxC= 1.00D-01 BMatC= 5.32D-11 BMatP= 4.63D-10
 IDIUse=1 WtCom= 1.00D+00 WtEn= 0.00D+00
 Coeff-Com: -0.361D-05 0.849D-05-0.104D-03 0.358D-04-0.278D-03-0.390D-03
 Coeff-Com: -0.226D-02-0.460D-02 0.926D-02 0.728D-01 0.284D+00 0.641D+00
 Coeff:     -0.361D-05 0.849D-05-0.104D-03 0.358D-04-0.278D-03-0.390D-03
 Coeff:     -0.226D-02-0.460D-02 0.926D-02 0.728D-01 0.284D+00 0.641D+00
 Gap=     0.244 Goal=   None    Shift=    0.000
 RMSDP=7.45D-08 MaxDP=1.36D-05 DE=-3.63D-10 OVMax= 1.03D-06

 Cycle  13  Pass 1  IDiag  1:
 E= -880.913916757137     Delta-E=       -0.000000000018 Rises=F Damp=F
 DIIS: error= 4.70D-08 at cycle  13 NSaved=  13.
 NSaved=13 IEnMin=13 EnMin= -880.913916757137     IErMin=13 ErrMin= 4.70D-08
 ErrMax= 4.70D-08  0.00D+00 EMaxC= 1.00D-01 BMatC= 2.87D-12 BMatP= 5.32D-11
 IDIUse=1 WtCom= 1.00D+00 WtEn= 0.00D+00
 Coeff-Com: -0.127D-05 0.311D-05-0.661D-05 0.341D-05-0.103D-04-0.606D-05
 Coeff-Com: -0.514D-03-0.193D-02-0.373D-02-0.364D-02 0.534D-01 0.245D+00
 Coeff-Com:  0.712D+00
 Coeff:     -0.127D-05 0.311D-05-0.661D-05 0.341D-05-0.103D-04-0.606D-05
 Coeff:     -0.514D-03-0.193D-02-0.373D-02-0.364D-02 0.534D-01 0.245D+00
 Coeff:      0.712D+00
 Gap=     0.244 Goal=   None    Shift=    0.000
 RMSDP=1.57D-08 MaxDP=1.43D-06 DE=-1.77D-11 OVMax= 4.80D-07

 Cycle  14  Pass 1  IDiag  1:
 E= -880.913916757155     Delta-E=       -0.000000000018 Rises=F Damp=F
 DIIS: error= 2.27D-08 at cycle  14 NSaved=  14.
 NSaved=14 IEnMin=14 EnMin= -880.913916757155     IErMin=14 ErrMin= 2.27D-08
 ErrMax= 2.27D-08  0.00D+00 EMaxC= 1.00D-01 BMatC= 4.35D-13 BMatP= 2.87D-12
 IDIUse=1 WtCom= 1.00D+00 WtEn= 0.00D+00
 Coeff-Com: -0.246D-06 0.712D-06 0.422D-05-0.876D-06 0.131D-04 0.178D-04
 Coeff-Com: -0.441D-04-0.515D-03-0.255D-02-0.856D-02-0.203D-02 0.534D-01
 Coeff-Com:  0.331D+00 0.629D+00
 Coeff:     -0.246D-06 0.712D-06 0.422D-05-0.876D-06 0.131D-04 0.178D-04
 Coeff:     -0.441D-04-0.515D-03-0.255D-02-0.856D-02-0.203D-02 0.534D-01
 Coeff:      0.331D+00 0.629D+00
 Gap=     0.244 Goal=   None    Shift=    0.000
 RMSDP=1.01D-08 MaxDP=1.97D-06 DE=-1.82D-11 OVMax= 9.84D-08

 Cycle  15  Pass 1  IDiag  1:
 E= -880.913916757168     Delta-E=       -0.000000000014 Rises=F Damp=F
 DIIS: error= 6.21D-09 at cycle  15 NSaved=  15.
 NSaved=15 IEnMin=15 EnMin= -880.913916757168     IErMin=15 ErrMin= 6.21D-09
 ErrMax= 6.21D-09  0.00D+00 EMaxC= 1.00D-01 BMatC= 2.97D-14 BMatP= 4.35D-13
 IDIUse=1 WtCom= 1.00D+00 WtEn= 0.00D+00
 Coeff-Com: -0.101D-07 0.103D-06 0.218D-05-0.597D-06 0.590D-05 0.577D-05
 Coeff-Com:  0.154D-04-0.993D-04-0.823D-03-0.340D-02-0.403D-02 0.852D-02
 Coeff-Com:  0.967D-01 0.266D+00 0.637D+00
 Coeff:     -0.101D-07 0.103D-06 0.218D-05-0.597D-06 0.590D-05 0.577D-05
 Coeff:      0.154D-04-0.993D-04-0.823D-03-0.340D-02-0.403D-02 0.852D-02
 Coeff:      0.967D-01 0.266D+00 0.637D+00
 Gap=     0.244 Goal=   None    Shift=    0.000
 RMSDP=2.74D-09 MaxDP=5.05D-07 DE=-1.36D-11 OVMax= 2.87D-08

 SCF Done:  E(RPBE1PBE) =  -880.913916757     A.U. after   15 cycles
            NFock= 15  Conv=0.27D-08     -V/T= 2.0044
 KE= 8.770952992737D+02 PE=-4.919450523364D+03 EE= 1.723473854600D+03
 Leave Link  502 at Tue Jan 10 04:25:43 2017, MaxMem= 13421772800 cpu:      1096.4
 (Enter /share/apps//g09/l601.exe)
 Copying SCF densities to generalized density rwf, IOpCl= 0 IROHF=0.

 **********************************************************************

            Population analysis using the SCF density.

 **********************************************************************

 Orbital symmetries:
       Occupied  (A) (A) (A) (A) (A) (A) (A) (A) (A) (A) (A) (A)
                 (A) (A) (A) (A) (A) (A) (A) (A) (A) (A) (A) (A)
                 (A) (A) (A) (A) (A) (A) (A) (A) (A) (A) (A) (A)
                 (A) (A) (A) (A) (A) (A) (A) (A) (A) (A) (A) (A)
                 (A) (A) (A) (A) (A) (A) (A) (A) (A) (A) (A) (A)
                 (A) (A) (A) (A) (A) (A)
       Virtual   (A) (A) (A) (A) (A) (A) (A) (A) (A) (A) (A) (A)
                 (A) (A) (A) (A) (A) (A) (A) (A) (A) (A) (A) (A)
                 (A) (A) (A) (A) (A) (A) (A) (A) (A) (A) (A) (A)
                 (A) (A) (A) (A) (A) (A) (A) (A) (A) (A) (A) (A)
                 (A) (A) (A) (A) (A) (A) (A) (A) (A) (A) (A) (A)
                 (A) (A) (A) (A) (A) (A) (A) (A) (A) (A) (A) (A)
                 (A) (A) (A) (A) (A) (A) (A) (A) (A) (A) (A) (A)
                 (A) (A) (A) (A) (A) (A) (A) (A) (A) (A) (A) (A)
                 (A) (A) (A) (A) (A) (A) (A) (A) (A) (A) (A) (A)
                 (A) (A) (A) (A) (A) (A) (A) (A) (A) (A) (A) (A)
                 (A) (A) (A) (A) (A) (A) (A) (A) (A) (A) (A) (A)
                 (A) (A) (A) (A) (A) (A) (A) (A) (A) (A) (A) (A)
                 (A) (A) (A) (A) (A) (A) (A) (A) (A) (A) (A) (A)
                 (A) (A) (A) (A) (A) (A) (A) (A) (A) (A) (A) (A)
                 (A) (A) (A) (A) (A) (A) (A) (A) (A) (A) (A) (A)
                 (A) (A) (A) (A) (A) (A) (A) (A) (A) (A) (A) (A)
                 (A) (A) (A) (A) (A) (A) (A) (A) (A) (A) (A) (A)
                 (A) (A) (A) (A) (A) (A) (A) (A) (A) (A) (A) (A)
                 (A) (A) (A) (A) (A) (A) (A) (A) (A) (A) (A) (A)
                 (A) (A) (A) (A) (A) (A) (A) (A) (A) (A) (A) (A)
                 (A) (A) (A) (A) (A) (A) (A) (A) (A) (A) (A) (A)
                 (A) (A) (A) (A) (A) (A) (A) (A) (A) (A) (A) (A)
                 (A) (A) (A) (A) (A) (A) (A) (A) (A) (A) (A) (A)
                 (A) (A) (A) (A) (A) (A) (A) (A) (A) (A) (A) (A)
                 (A) (A) (A) (A) (A) (A) (A) (A) (A) (A) (A) (A)
                 (A) (A) (A) (A) (A) (A) (A) (A) (A) (A) (A) (A)
                 (A) (A) (A) (A) (A) (A) (A) (A) (A) (A) (A) (A)
                 (A) (A) (A) (A) (A) (A) (A) (A) (A) (A) (A) (A)
                 (A) (A) (A) (A) (A) (A) (A) (A) (A) (A) (A) (A)
                 (A) (A) (A) (A) (A) (A) (A) (A) (A) (A) (A) (A)
                 (A) (A) (A) (A) (A) (A) (A) (A) (A) (A) (A) (A)
                 (A) (A) (A) (A) (A) (A) (A) (A) (A) (A) (A) (A)
                 (A) (A) (A) (A) (A) (A) (A) (A) (A) (A) (A) (A)
                 (A) (A) (A) (A) (A) (A) (A) (A) (A) (A) (A) (A)
                 (A) (A) (A) (A) (A) (A) (A) (A) (A) (A) (A) (A)
                 (A) (A)
 The electronic state is 1-A.
 Alpha  occ. eigenvalues --  -19.48150 -19.41586 -19.37925 -19.35574 -19.34631
 Alpha  occ. eigenvalues --  -19.31653 -10.52331 -10.47795 -10.46207 -10.45959
 Alpha  occ. eigenvalues --  -10.45551 -10.43999 -10.43134 -10.42528 -10.38642
 Alpha  occ. eigenvalues --  -10.38301 -10.33982  -1.33108  -1.26340  -1.25708
 Alpha  occ. eigenvalues --   -1.21191  -1.19723  -1.17256  -0.99644  -0.97162
 Alpha  occ. eigenvalues --   -0.93454  -0.89405  -0.86729  -0.85277  -0.83118
 Alpha  occ. eigenvalues --   -0.81654  -0.80134  -0.75442  -0.73675  -0.72107
 Alpha  occ. eigenvalues --   -0.69762  -0.67603  -0.66700  -0.66296  -0.64936
 Alpha  occ. eigenvalues --   -0.64357  -0.63055  -0.62274  -0.61712  -0.61155
 Alpha  occ. eigenvalues --   -0.59793  -0.59399  -0.58599  -0.58343  -0.57292
 Alpha  occ. eigenvalues --   -0.56004  -0.55329  -0.54909  -0.52934  -0.52561
 Alpha  occ. eigenvalues --   -0.52096  -0.51728  -0.50767  -0.50093  -0.48300
 Alpha  occ. eigenvalues --   -0.47624  -0.46572  -0.44810  -0.42650  -0.41404
 Alpha  occ. eigenvalues --   -0.40079
 Alpha virt. eigenvalues --   -0.15632  -0.12437  -0.11666  -0.11141  -0.10078
 Alpha virt. eigenvalues --   -0.09310  -0.08896  -0.07800  -0.07314  -0.06837
 Alpha virt. eigenvalues --   -0.06435  -0.06222  -0.05660  -0.04921  -0.04268
 Alpha virt. eigenvalues --   -0.03917  -0.03777  -0.03487  -0.02653  -0.02418
 Alpha virt. eigenvalues --   -0.01985  -0.01836  -0.01499  -0.01332  -0.00490
 Alpha virt. eigenvalues --   -0.00324   0.00509   0.00696   0.01492   0.01538
 Alpha virt. eigenvalues --    0.01833   0.02352   0.02622   0.02889   0.03416
 Alpha virt. eigenvalues --    0.03499   0.03740   0.04209   0.04500   0.04604
 Alpha virt. eigenvalues --    0.04942   0.05712   0.06093   0.06406   0.07008
 Alpha virt. eigenvalues --    0.07497   0.07750   0.07843   0.08270   0.08714
 Alpha virt. eigenvalues --    0.09217   0.09453   0.09992   0.10479   0.10711
 Alpha virt. eigenvalues --    0.10814   0.11408   0.11596   0.12074   0.12290
 Alpha virt. eigenvalues --    0.12621   0.13090   0.13691   0.13769   0.14161
 Alpha virt. eigenvalues --    0.14604   0.15166   0.15567   0.15928   0.16188
 Alpha virt. eigenvalues --    0.16667   0.17179   0.17411   0.17873   0.18593
 Alpha virt. eigenvalues --    0.19038   0.19632   0.19853   0.20405   0.20680
 Alpha virt. eigenvalues --    0.21112   0.22386   0.22864   0.23274   0.24192
 Alpha virt. eigenvalues --    0.24443   0.24860   0.25311   0.25949   0.26409
 Alpha virt. eigenvalues --    0.26903   0.27501   0.27995   0.28439   0.28595
 Alpha virt. eigenvalues --    0.28870   0.29651   0.29970   0.30510   0.32217
 Alpha virt. eigenvalues --    0.32813   0.33053   0.34372   0.34453   0.35649
 Alpha virt. eigenvalues --    0.36150   0.36601   0.37076   0.38072   0.38390
 Alpha virt. eigenvalues --    0.39531   0.40133   0.40723   0.41262   0.42040
 Alpha virt. eigenvalues --    0.43274   0.44430   0.44624   0.44943   0.45354
 Alpha virt. eigenvalues --    0.47240   0.47814   0.48018   0.48863   0.49626
 Alpha virt. eigenvalues --    0.50674   0.50765   0.51551   0.52442   0.52505
 Alpha virt. eigenvalues --    0.53709   0.54482   0.55158   0.55530   0.55858
 Alpha virt. eigenvalues --    0.56225   0.56725   0.57818   0.58568   0.58748
 Alpha virt. eigenvalues --    0.59567   0.60097   0.60560   0.61007   0.61758
 Alpha virt. eigenvalues --    0.62290   0.62833   0.64404   0.64548   0.65791
 Alpha virt. eigenvalues --    0.66391   0.66857   0.68774   0.69158   0.71367
 Alpha virt. eigenvalues --    0.73694   0.75162   0.75760   0.78350   0.81310
 Alpha virt. eigenvalues --    0.82077   0.85503   0.86173   0.87315   0.87999
 Alpha virt. eigenvalues --    0.89123   0.91845   0.93303   0.94084   0.95217
 Alpha virt. eigenvalues --    0.96823   0.97701   0.98997   1.00524   1.01488
 Alpha virt. eigenvalues --    1.02916   1.03266   1.05134   1.06194   1.08367
 Alpha virt. eigenvalues --    1.09772   1.11319   1.11892   1.13355   1.14169
 Alpha virt. eigenvalues --    1.14553   1.16178   1.17128   1.18188   1.18929
 Alpha virt. eigenvalues --    1.20421   1.22454   1.23323   1.24280   1.25195
 Alpha virt. eigenvalues --    1.26455   1.27419   1.28313   1.29805   1.30851
 Alpha virt. eigenvalues --    1.31698   1.33271   1.34453   1.35095   1.36007
 Alpha virt. eigenvalues --    1.36499   1.36510   1.37719   1.39416   1.40330
 Alpha virt. eigenvalues --    1.41343   1.42395   1.42806   1.43067   1.45035
 Alpha virt. eigenvalues --    1.45377   1.46131   1.46682   1.47355   1.47857
 Alpha virt. eigenvalues --    1.48773   1.49227   1.49596   1.50030   1.51286
 Alpha virt. eigenvalues --    1.52015   1.52567   1.52833   1.54085   1.54276
 Alpha virt. eigenvalues --    1.55562   1.56998   1.57799   1.58680   1.59497
 Alpha virt. eigenvalues --    1.60434   1.61268   1.62078   1.62466   1.64020
 Alpha virt. eigenvalues --    1.65430   1.66898   1.66928   1.67844   1.70618
 Alpha virt. eigenvalues --    1.71329   1.71857   1.71928   1.74243   1.75009
 Alpha virt. eigenvalues --    1.76178   1.77326   1.78455   1.78688   1.80900
 Alpha virt. eigenvalues --    1.81975   1.82537   1.85437   1.88329   1.88698
 Alpha virt. eigenvalues --    1.89507   1.91418   1.93106   1.93551   1.95865
 Alpha virt. eigenvalues --    1.96855   1.98227   1.99071   2.00463   2.01205
 Alpha virt. eigenvalues --    2.02730   2.03173   2.04424   2.06308   2.07207
 Alpha virt. eigenvalues --    2.08116   2.10690   2.12869   2.13753   2.14030
 Alpha virt. eigenvalues --    2.15767   2.17891   2.19300   2.21407   2.26823
 Alpha virt. eigenvalues --    2.26892   2.30590   2.33251   2.34392   2.34493
 Alpha virt. eigenvalues --    2.35539   2.36163   2.37617   2.39076   2.40085
 Alpha virt. eigenvalues --    2.41059   2.42298   2.42562   2.42914   2.44869
 Alpha virt. eigenvalues --    2.45270   2.46320   2.46794   2.47628   2.47856
 Alpha virt. eigenvalues --    2.48947   2.50163   2.51221   2.53280   2.54838
 Alpha virt. eigenvalues --    2.57027   2.57479   2.58117   2.59754   2.62229
 Alpha virt. eigenvalues --    2.62886   2.65074   2.66434   2.70391   2.71162
 Alpha virt. eigenvalues --    2.72326   2.74261   2.75079   2.76888   2.77348
 Alpha virt. eigenvalues --    2.79476   2.80610   2.81423   2.83231   2.84119
 Alpha virt. eigenvalues --    2.85904   2.86967   2.88882   2.90346   2.90963
 Alpha virt. eigenvalues --    2.92291   2.94526   2.96019   2.97496   2.99378
 Alpha virt. eigenvalues --    3.00358   3.01588   3.02962   3.04263   3.05124
 Alpha virt. eigenvalues --    3.07835   3.08550   3.09977   3.11098   3.12325
 Alpha virt. eigenvalues --    3.13362   3.14830   3.16748   3.19737   3.20279
 Alpha virt. eigenvalues --    3.26664   3.28470   3.31193   3.38455   3.48054
 Alpha virt. eigenvalues --    3.56661   3.59077   3.62102   3.67004   3.67566
 Alpha virt. eigenvalues --    3.68695   3.69393   3.69738   3.70430   3.71796
 Alpha virt. eigenvalues --    3.76119   3.80290   3.82352   3.83596   3.86636
 Alpha virt. eigenvalues --    3.90132   3.93835   3.96135   3.96936   3.99489
 Alpha virt. eigenvalues --    4.01986   4.05720   4.09212   4.09765   4.13612
 Alpha virt. eigenvalues --    4.16826   4.25702   5.00861   5.03074   5.04229
 Alpha virt. eigenvalues --    5.04726   5.05775   5.10031   5.16290   5.20418
 Alpha virt. eigenvalues --    5.27994   5.30207   5.32438   5.36635   5.40535
 Alpha virt. eigenvalues --    5.51072   5.56202   5.58013   5.63564   5.79706
 Alpha virt. eigenvalues --   23.69215  23.75026  23.76791  23.81260  23.81711
 Alpha virt. eigenvalues --   23.84860  23.86140  23.89336  23.89975  23.92194
 Alpha virt. eigenvalues --   23.94373  49.90969  49.91860  49.93884  49.98132
 Alpha virt. eigenvalues --   50.01300  50.01926
          Condensed to atoms (all electrons):
               1          2          3          4          5          6
     1  C    8.358397  -2.761731   1.560235  -1.976713   0.550343  -0.157405
     2  C   -2.761731  14.969392  -5.410306   1.754683   0.177711  -1.194127
     3  C    1.560235  -5.410306  14.033097  -4.918079   0.857196  -0.672554
     4  C   -1.976713   1.754683  -4.918079  20.056921  -9.932882   2.229998
     5  C    0.550343   0.177711   0.857196  -9.932882  21.395507  -7.019467
     6  C   -0.157405  -1.194127  -0.672554   2.229998  -7.019467  13.303225
     7  O    0.012082   0.188103  -0.030529  -0.125182  -0.001257   0.306122
     8  O    0.154704  -0.248464   0.153108  -0.433203   0.198047  -0.022620
     9  O    0.113873  -0.411390   0.420448  -0.541794   0.179188  -0.055488
    10  O   -0.298084  -0.159669   0.290391   0.090671   0.100062  -0.475917
    11  H    0.391011  -0.026271  -0.045456   0.006538   0.031750   0.004985
    12  H    0.433950  -0.018050  -0.007383  -0.002366  -0.000635  -0.004330
    13  H    0.001064   0.388772  -0.007316  -0.045280   0.053232  -0.026211
    14  H    0.006003  -0.046481   0.427052  -0.154641   0.095260  -0.008884
    15  H    0.005851   0.013037  -0.059368   0.348166   0.014734   0.010897
    16  H    0.018053  -0.060938   0.039881  -0.089886   0.330779   0.048035
    17  H    0.043739  -0.008969   0.031231  -0.046402   0.038552   0.317630
    18  O    0.008586   0.005063  -0.068059  -0.079982   0.430390  -0.226489
    19  C   -0.245015  -0.058415   0.071226   0.153761  -0.137710  -0.120965
    20  H    0.030545  -0.009088   0.000202  -0.015266   0.013928  -0.005762
    21  H   -0.014193   0.019430  -0.012938   0.001992   0.011268  -0.022357
    22  H    0.003548  -0.002954   0.004817  -0.000695  -0.016725   0.036808
    23  C   -0.014471   0.039565  -0.069377   0.293338  -0.492253   0.015446
    24  H    0.000169   0.000436  -0.012741   0.025240  -0.086933   0.058162
    25  H    0.000391  -0.009833   0.040279   0.026809  -0.028812  -0.032335
    26  H    0.000044   0.001446  -0.006002  -0.013111   0.056239  -0.004849
    27  C    0.048320  -0.131201   0.034346  -0.579801   0.021233   0.105077
    28  H   -0.003427   0.000211   0.043409  -0.045853  -0.038367   0.000696
    29  H    0.002464  -0.004520   0.003720  -0.045377   0.028525  -0.005133
    30  H   -0.001305   0.008667  -0.018746   0.055551  -0.000402   0.003972
    31  C    0.067656  -0.460266  -0.357652   0.569751  -0.465641   0.156221
    32  O    0.000980   0.070184   0.217162  -0.189485  -0.007079  -0.006623
    33  C    0.015840  -0.135555   0.055686  -0.108708  -0.044255  -0.003873
    34  H    0.000004   0.006266  -0.021501   0.003736  -0.000735   0.000298
    35  H   -0.000450  -0.003906   0.023940  -0.016015   0.001204  -0.000737
    36  H    0.000214   0.000041  -0.006224   0.003724  -0.000392  -0.000004
               7          8          9         10         11         12
     1  C    0.012082   0.154704   0.113873  -0.298084   0.391011   0.433950
     2  C    0.188103  -0.248464  -0.411390  -0.159669  -0.026271  -0.018050
     3  C   -0.030529   0.153108   0.420448   0.290391  -0.045456  -0.007383
     4  C   -0.125182  -0.433203  -0.541794   0.090671   0.006538  -0.002366
     5  C   -0.001257   0.198047   0.179188   0.100062   0.031750  -0.000635
     6  C    0.306122  -0.022620  -0.055488  -0.475917   0.004985  -0.004330
     7  O    7.620438   0.019097   0.011555  -0.082464   0.007591  -0.002826
     8  O    0.019097   8.174722   0.073162  -0.029247  -0.003631   0.002555
     9  O    0.011555   0.073162   8.486491   0.003920   0.002574  -0.001087
    10  O   -0.082464  -0.029247   0.003920   8.538595  -0.011295  -0.064166
    11  H    0.007591  -0.003631   0.002574  -0.011295   0.377024  -0.020461
    12  H   -0.002826   0.002555  -0.001087  -0.064166  -0.020461   0.436297
    13  H   -0.038074   0.000720  -0.000636   0.009726   0.002845  -0.006760
    14  H    0.010472   0.016424  -0.026080  -0.004641   0.000391  -0.000042
    15  H   -0.000432  -0.042620   0.005900  -0.002326  -0.000174   0.000042
    16  H    0.007423   0.012244   0.000398   0.010530  -0.000210   0.000006
    17  H   -0.049163   0.000467   0.000372  -0.031300  -0.000316  -0.000139
    18  O    0.023349   0.014535   0.002887   0.003921   0.000108   0.000110
    19  C   -0.002501  -0.010193  -0.002404   0.082520   0.000815   0.000763
    20  H   -0.000422  -0.000048   0.000025  -0.037690  -0.000226   0.000138
    21  H    0.005441  -0.000014   0.000001  -0.052404  -0.000059   0.003807
    22  H   -0.001888  -0.000269   0.000052  -0.042273  -0.000115  -0.000705
    23  C   -0.001334  -0.006974  -0.001619  -0.014439   0.000055   0.000108
    24  H    0.000467   0.001225  -0.000017  -0.000370  -0.000002   0.000000
    25  H   -0.000454  -0.003668   0.000140   0.000533  -0.000001   0.000000
    26  H   -0.000130   0.000054   0.000001   0.000072  -0.000000   0.000000
    27  C    0.000329   0.168369   0.035523   0.002148  -0.001416   0.000243
    28  H    0.000052  -0.030634   0.003193  -0.000243   0.000482  -0.000000
    29  H   -0.000027  -0.049663   0.001104  -0.000640  -0.000134   0.000004
    30  H    0.000067  -0.077512   0.000150  -0.001196  -0.000102  -0.000001
    31  C   -0.001613  -0.012838   0.025644   0.003709  -0.008700  -0.000429
    32  O    0.000044   0.000597  -0.188472  -0.000040  -0.000200   0.000012
    33  C   -0.002518  -0.007818  -0.290760  -0.001376  -0.005681   0.000127
    34  H    0.000001  -0.000048  -0.005733   0.000005   0.000012  -0.000000
    35  H   -0.000002  -0.000251   0.004768   0.000009   0.000024   0.000000
    36  H   -0.000001   0.000103   0.013621   0.000000   0.000001  -0.000000
              13         14         15         16         17         18
     1  C    0.001064   0.006003   0.005851   0.018053   0.043739   0.008586
     2  C    0.388772  -0.046481   0.013037  -0.060938  -0.008969   0.005063
     3  C   -0.007316   0.427052  -0.059368   0.039881   0.031231  -0.068059
     4  C   -0.045280  -0.154641   0.348166  -0.089886  -0.046402  -0.079982
     5  C    0.053232   0.095260   0.014734   0.330779   0.038552   0.430390
     6  C   -0.026211  -0.008884   0.010897   0.048035   0.317630  -0.226489
     7  O   -0.038074   0.010472  -0.000432   0.007423  -0.049163   0.023349
     8  O    0.000720   0.016424  -0.042620   0.012244   0.000467   0.014535
     9  O   -0.000636  -0.026080   0.005900   0.000398   0.000372   0.002887
    10  O    0.009726  -0.004641  -0.002326   0.010530  -0.031300   0.003921
    11  H    0.002845   0.000391  -0.000174  -0.000210  -0.000316   0.000108
    12  H   -0.006760  -0.000042   0.000042   0.000006  -0.000139   0.000110
    13  H    0.403884  -0.002561  -0.000083   0.000076   0.000243   0.000143
    14  H   -0.002561   0.421163   0.000768  -0.000301  -0.000343   0.002484
    15  H   -0.000083   0.000768   0.447844  -0.003121  -0.000038   0.003090
    16  H    0.000076  -0.000301  -0.003121   0.469859  -0.001541  -0.037041
    17  H    0.000243  -0.000343  -0.000038  -0.001541   0.419990   0.012378
    18  O    0.000143   0.002484   0.003090  -0.037041   0.012378   7.876298
    19  C   -0.002446  -0.001085  -0.000479   0.001507  -0.008489  -0.005724
    20  H    0.000018  -0.000003   0.000006  -0.000009  -0.000237  -0.000091
    21  H   -0.000035   0.000009   0.000002  -0.000049   0.001849   0.000121
    22  H    0.000022  -0.000003  -0.000002   0.000055   0.000298   0.000116
    23  C   -0.000241  -0.001269   0.006554   0.002691   0.000036   0.145591
    24  H   -0.000001   0.000003  -0.000120   0.012532  -0.000404  -0.038708
    25  H    0.000001  -0.000246   0.003272  -0.003314   0.000118  -0.032086
    26  H   -0.000001  -0.000012  -0.000184  -0.000094  -0.000043  -0.064868
    27  C    0.001016   0.003567   0.000407   0.006010  -0.000587  -0.002460
    28  H   -0.000001  -0.000512  -0.000990   0.000152   0.000001   0.000278
    29  H   -0.000004   0.000302   0.011241  -0.000281  -0.000003  -0.000612
    30  H   -0.000006   0.000060  -0.000090  -0.000327  -0.000004   0.000042
    31  C   -0.001724  -0.020937   0.000282   0.004504  -0.000285  -0.005979
    32  O   -0.000412   0.007678  -0.003317  -0.000041   0.000017  -0.001552
    33  C   -0.001933  -0.000046  -0.000144   0.000229   0.000002  -0.002928
    34  H   -0.000016  -0.000049  -0.000014   0.000000  -0.000000   0.000001
    35  H   -0.000010  -0.000092  -0.000014   0.000000   0.000000   0.000000
    36  H    0.000003   0.000046   0.000007   0.000000   0.000000  -0.000001
              19         20         21         22         23         24
     1  C   -0.245015   0.030545  -0.014193   0.003548  -0.014471   0.000169
     2  C   -0.058415  -0.009088   0.019430  -0.002954   0.039565   0.000436
     3  C    0.071226   0.000202  -0.012938   0.004817  -0.069377  -0.012741
     4  C    0.153761  -0.015266   0.001992  -0.000695   0.293338   0.025240
     5  C   -0.137710   0.013928   0.011268  -0.016725  -0.492253  -0.086933
     6  C   -0.120965  -0.005762  -0.022357   0.036808   0.015446   0.058162
     7  O   -0.002501  -0.000422   0.005441  -0.001888  -0.001334   0.000467
     8  O   -0.010193  -0.000048  -0.000014  -0.000269  -0.006974   0.001225
     9  O   -0.002404   0.000025   0.000001   0.000052  -0.001619  -0.000017
    10  O    0.082520  -0.037690  -0.052404  -0.042273  -0.014439  -0.000370
    11  H    0.000815  -0.000226  -0.000059  -0.000115   0.000055  -0.000002
    12  H    0.000763   0.000138   0.003807  -0.000705   0.000108   0.000000
    13  H   -0.002446   0.000018  -0.000035   0.000022  -0.000241  -0.000001
    14  H   -0.001085  -0.000003   0.000009  -0.000003  -0.001269   0.000003
    15  H   -0.000479   0.000006   0.000002  -0.000002   0.006554  -0.000120
    16  H    0.001507  -0.000009  -0.000049   0.000055   0.002691   0.012532
    17  H   -0.008489  -0.000237   0.001849   0.000298   0.000036  -0.000404
    18  O   -0.005724  -0.000091   0.000121   0.000116   0.145591  -0.038708
    19  C    5.325335   0.394518   0.423381   0.390262  -0.005887   0.000295
    20  H    0.394518   0.439239  -0.021677  -0.011666  -0.000136  -0.000001
    21  H    0.423381  -0.021677   0.445251  -0.021470   0.000109  -0.000001
    22  H    0.390262  -0.011666  -0.021470   0.441725   0.000049  -0.000000
    23  C   -0.005887  -0.000136   0.000109   0.000049   5.171945   0.404618
    24  H    0.000295  -0.000001  -0.000001  -0.000000   0.404618   0.517552
    25  H    0.000034   0.000001  -0.000000   0.000000   0.406996  -0.040482
    26  H   -0.000002  -0.000000  -0.000000   0.000000   0.407817  -0.019105
    27  C   -0.001121  -0.000148   0.000060  -0.000370  -0.008346   0.001882
    28  H    0.000361  -0.000000  -0.000000  -0.000001  -0.000085   0.000003
    29  H   -0.000212  -0.000000  -0.000000   0.000000   0.000741  -0.000005
    30  H   -0.000528  -0.000001   0.000000  -0.000003  -0.000188  -0.000001
    31  C    0.003653  -0.000050  -0.000153   0.000076   0.000510   0.000074
    32  O    0.000142   0.000000   0.000000  -0.000000  -0.000373  -0.000012
    33  C    0.001571  -0.000005  -0.000019  -0.000003  -0.001062  -0.000002
    34  H   -0.000002   0.000000  -0.000000   0.000000  -0.000000  -0.000000
    35  H    0.000001   0.000000   0.000000  -0.000000  -0.000008   0.000000
[...]
 000622,0.00002075,-0.00000398,0.00002619,0.00001387,0.00001864,-0.0000
 0296,0.00002702,0.00000033,0.00040509,-0.00003060,-0.00045384,0.000016
 09,-0.00001698,0.00009015,0.00010047,0.00003445,0.00000889,-0.00002673
 ,0.00005585,0.00001486,0.00040424,0.00123767,-0.00179746,0.00011382,0.
 00029885,-0.00045732,-0.00009048,-0.00003237,0.00036113,0.00014891,-0.
 00006648,0.00022421,-0.23321279,0.19188728,0.43378108,0.00048456,0.000
 76407,0.00133981,0.00242443,0.00170826,0.00082794,-0.00525735,0.016395
 79,0.01211659,-0.00149463,-0.00313732,-0.00032340,-0.00011955,0.001869
 19,-0.00122898,-0.00062455,-0.00037649,0.00205962,-0.00065113,-0.00235
 408,-0.00284661,0.00194911,0.00122048,-0.00154069,-0.10441527,-0.05064
 139,-0.00084683,-0.00028540,-0.00046597,-0.00144390,0.00058157,-0.0001
 7202,0.00064808,-0.00000417,-0.00014210,-0.00014934,0.00045203,0.00065
 753,-0.00031694,0.00007326,-0.00332160,-0.00137772,-0.00015340,-0.0007
 3776,-0.00311743,0.00002098,-0.00050438,-0.00041124,0.00009831,0.00011
 681,-0.00025174,0.00176091,-0.00015477,-0.00038419,0.00070724,0.000193
 62,0.00028114,-0.00006000,-0.00005610,-0.00003405,-0.00003091,0.000021
 21,0.00001054,-0.00000076,-0.00003357,0.00006589,-0.00106139,-0.000681
 00,0.00042801,0.00014647,0.00015424,-0.00000112,0.00003158,0.00023397,
 -0.00025124,0.00008726,-0.00006622,-0.00008654,-0.00178476,-0.00199154
 ,0.00042749,0.00026019,0.00053951,-0.00027444,0.00034655,0.00020502,-0
 .00011839,0.00021383,0.00021538,0.00007940,-0.66615769,0.10002690,0.22
 788199,0.79456521,-0.00044093,-0.00051596,0.00019529,-0.00087078,0.002
 44220,0.00048121,0.00031681,0.00200958,0.00503331,0.00079668,-0.001750
 82,-0.00021052,-0.00062179,0.00030679,0.00050093,0.00045518,-0.0004000
 1,0.00028546,0.00007143,0.00017047,-0.00044844,-0.00012960,0.00170361,
 -0.00084622,-0.04477116,0.01479630,0.00373569,-0.00055016,0.00000875,-
 0.00039715,0.00023480,-0.00019604,0.00007448,-0.00017450,-0.00002162,-
 0.00021073,-0.00002946,-0.00006742,-0.00014737,-0.00015585,0.00098126,
 -0.00058629,-0.00109072,-0.00099503,-0.00056584,-0.00001670,-0.0000979
 2,-0.00015595,-0.00011705,-0.00003600,-0.00001603,0.00021428,0.0000128
 4,-0.00043099,0.00039642,0.00013887,0.00019609,-0.00001305,-0.00003655
 ,-0.00000719,-0.00001105,0.00000389,-0.00001066,-0.00000837,-0.0000300
 0,0.00001078,-0.00030085,-0.00000385,0.00033340,-0.00003118,-0.0000119
 8,-0.00009202,-0.00001305,-0.00004819,0.00008012,0.00001492,0.00001417
 ,0.00002617,-0.00079324,-0.00096889,0.00040360,0.00031058,0.00007018,-
 0.00029585,0.00017635,0.00017621,0.00003917,-0.00002265,0.00011448,-0.
 00011296,0.08480946,-0.11961666,-0.05038044,-0.07067321,0.09527401,-0.
 00011917,-0.00032605,-0.00050294,-0.00119458,0.00017425,0.00037589,0.0
 0175548,0.00132353,-0.00521243,0.00294294,-0.00208549,-0.00450822,-0.0
 0249970,0.00021442,0.00078745,0.00101396,-0.00018123,-0.00182549,0.000
 19839,0.00084278,0.00120529,-0.00141502,0.00006133,0.00036690,0.004854
 28,0.00615316,0.03283254,-0.00033367,0.00008537,0.00042312,-0.00002508
 ,-0.00000552,-0.00027884,-0.00004954,-0.00000580,-0.00001347,-0.000275
 74,-0.00027375,-0.00007239,-0.00014053,0.00139270,-0.00004535,-0.00312
 810,-0.00153240,-0.00041329,-0.00002725,-0.00000110,-0.00001319,-0.000
 37467,-0.00021255,0.00016860,0.00015170,-0.00029910,0.00005077,0.00012
 741,0.00010211,0.00013990,0.00002880,0.00000943,0.00002493,0.00000238,
 -0.00001730,-0.00001883,-0.00000616,-0.00000022,-0.00003072,0.00008060
 ,0.00028971,0.00024235,-0.00005877,-0.00004041,-0.00005159,-0.00014188
 ,-0.00005808,0.00007971,-0.00000991,-0.00005658,-0.00001672,0.00098213
 ,0.00057107,0.00058337,-0.00026299,-0.00059450,0.00036654,-0.00022965,
 -0.00015510,-0.00008300,-0.00022713,-0.00006222,-0.00017772,0.21345357
 ,-0.05483861,-0.17665958,-0.25115018,0.06550306,0.14842207,0.00006495,
 -0.00002420,0.00013371,0.00125439,-0.00050196,-0.00080829,-0.00420952,
 -0.00450251,-0.00079201,-0.00036100,-0.00015761,0.00064374,0.00023036,
 0.00016935,-0.00014137,-0.00012035,-0.00014852,0.00066586,-0.00055291,
 -0.00090658,-0.00071931,0.00025554,0.00025564,-0.00005998,0.00857429,-
 0.02521885,-0.01751806,-0.00001952,0.00006335,-0.00010707,-0.00004699,
 -0.00001367,0.00002372,-0.00001468,0.00002368,-0.00002000,0.00002068,0
 .00002083,0.00000881,-0.00011593,-0.00034332,-0.00004025,0.00018894,-0
 .00001544,-0.00063220,0.00002286,-0.00003900,-0.00003204,0.00005766,0.
 00004354,-0.00005619,0.00009536,0.00007462,-0.00000094,0.00001220,0.00
 000073,0.00000218,-0.00000466,-0.00000431,-0.00000331,0.00000042,0.000
 00440,0.00000317,-0.00000445,-0.00000720,0.00000368,-0.00009301,-0.000
 09067,-0.00000634,0.00002657,0.00001830,0.00001193,0.00002328,0.000033
 06,-0.00003840,0.00000920,0.00000045,-0.00000875,-0.00018381,-0.000147
 00,-0.00012482,0.00005669,0.00008370,-0.00005604,0.00002624,0.00004755
 ,0.00001648,0.00002632,0.00002279,-0.00001514,-0.08973755,0.03121167,0
 .02185337,-0.02353916,0.02782239,0.03295370,0.59138760,0.00006766,0.00
 004292,0.00013364,0.00057739,-0.00016460,-0.00050653,-0.00340530,0.002
 71184,0.00014371,0.00013537,-0.00119210,-0.00040006,-0.00016923,0.0004
 7114,-0.00023333,0.00018560,-0.00010163,0.00028324,-0.00032946,-0.0004
 8504,-0.00032292,-0.00001165,0.00041247,-0.00020593,-0.00104583,-0.028
 04093,-0.02712274,-0.00019868,-0.00000975,-0.00017167,0.00009630,0.000
 01364,0.00006128,-0.00003230,-0.00002496,-0.00005315,0.00000493,0.0000
 2184,-0.00000642,0.00033488,-0.00001946,0.00016456,-0.00014570,0.00001
 843,0.00012385,-0.00001714,-0.00012362,-0.00011109,-0.00002045,-0.0000
 0951,-0.00001236,0.00023249,-0.00009432,-0.00010857,0.00016475,0.00007
 230,0.00009926,-0.00000284,-0.00001017,-0.00000020,-0.00000319,-0.0000
 0175,-0.00000377,-0.00000278,-0.00000969,0.00000305,-0.00013947,-0.000
 03025,0.00011785,-0.00000252,0.00000866,-0.00002238,-0.00000673,0.0000
 0934,-0.00000604,0.00001198,-0.00000742,-0.00000482,-0.00018735,-0.000
 24820,0.00013273,0.00009159,-0.00002498,-0.00002503,0.00004906,0.00003
 775,-0.00001502,-0.00002685,0.00001378,-0.00004231,0.03140938,-0.16141
 718,-0.05776391,0.00703888,0.00995285,-0.01427947,0.04558406,0.5382868
 4,0.00000022,-0.00007187,0.00007790,0.00051507,-0.00007921,0.00004175,
 -0.00042448,-0.00034522,0.00392088,0.00012145,0.00042984,0.00056391,0.
 00011912,0.00002086,0.00019888,0.00009929,-0.00013536,0.00027216,-0.00
 025393,-0.00022685,-0.00040823,-0.00006040,0.00026029,-0.00013145,-0.0
 0014952,-0.02071378,-0.00410075,-0.00016882,0.00004475,-0.00011711,0.0
 0004021,-0.00002893,0.00000154,-0.00002104,-0.00000533,-0.00003570,0.0
 0005559,0.00008924,-0.00001406,-0.00029675,-0.00046356,-0.00051247,0.0
 0013003,0.00005743,-0.00009820,0.00000283,0.00002160,-0.00001360,-0.00
 000844,0.00001388,-0.00003531,0.00003143,-0.00002706,-0.00011089,0.000
 10888,0.00004631,0.00006284,-0.00000324,-0.00000863,-0.00000139,-0.000
 00161,0.00000041,-0.00000164,-0.00000328,-0.00000921,0.00000020,-0.000
 05454,0.00000957,0.00006047,-0.00000365,0.00000011,-0.00001762,-0.0000
 0136,-0.00000875,0.00000563,0.00000239,0.00000038,0.00000406,-0.000060
 32,-0.00007954,0.00006489,0.00001889,0.00002686,0.00001887,0.00000648,
 0.00000754,-0.00001233,0.00000741,0.00002214,-0.00001421,0.02271386,-0
 .05774629,-0.13912789,0.01793523,-0.02021985,0.00827370,0.01785415,-0.
 01115014,0.52861071,0.00002343,-0.00002879,-0.00005420,0.00008517,-0.0
 0000672,-0.00000685,-0.00011015,0.00057680,-0.00006496,-0.00004311,-0.
 00014664,-0.00007984,0.00002003,0.00005457,-0.00004981,0.00006650,-0.0
 0000776,0.00000802,-0.00005177,0.00000365,0.00001023,-0.00000521,-0.00
 001817,-0.00002089,-0.00019281,-0.00139374,-0.00132379,-0.00005305,0.0
 0002883,0.00002712,0.00002760,0.00000747,-0.00002336,-0.00000672,-0.00
 001750,-0.00001329,0.00002909,-0.00001429,0.00000900,-0.00000484,-0.00
 002763,0.00006629,-0.00001268,-0.00000332,-0.00000919,-0.00000485,-0.0
 0001441,-0.00001547,-0.00000408,-0.00000236,0.00000130,0.00000339,-0.0
 0001548,-0.00000328,0.00000521,0.00000474,0.00000525,0.00000020,0.0000
 0035,0.00000104,0.00000145,-0.00000321,-0.00000220,-0.00000005,-0.0000
 0027,-0.00000496,-0.00000620,-0.00000484,0.00000510,-0.00000104,0.0000
 0154,-0.00000151,-0.00000120,0.00000007,-0.00000072,0.00000030,0.00000
 049,0.00000185,-0.00002153,-0.00001761,0.00002732,-0.00001416,0.000003
 32,0.00000380,0.00000377,-0.00000684,-0.00000515,0.00000884,0.00000461
 ,0.00000908,-0.00866277,-0.00441030,0.00976527,-0.00019628,0.00359374,
 0.00066070,-0.08829366,-0.05000308,0.09499057,0.09531333,-0.00002149,-
 0.00000912,-0.00001698,0.00008408,0.00005369,-0.00001284,0.00016405,0.
 00004737,0.00050411,0.00004684,0.00006821,0.00008827,-0.00000334,-0.00
 000453,0.00003877,0.00001875,0.00000639,-0.00003646,-0.00002398,-0.000
 02039,0.00001626,-0.00002371,0.00006119,-0.00002781,-0.00054017,-0.001
 62036,0.00090510,0.00000139,0.00000612,0.00002618,0.00000102,-0.000002
 56,0.00000376,-0.00000620,0.00000238,-0.00000391,-0.00002028,-0.000028
 30,-0.00002184,-0.00002835,-0.00003262,-0.00008614,0.00001132,0.000010
 39,0.00005837,-0.00000210,-0.00000135,-0.00000172,-0.00000602,-0.00000
 360,0.00000236,-0.00001158,-0.00000341,-0.00000593,-0.00000632,-0.0000
 0079,-0.00000309,0.00000121,0.00000019,0.00000054,-0.00000044,0.,-0.00
 000064,-0.00000156,-0.00000022,-0.00000008,0.00000516,0.00000895,0.000
 00398,-0.00000227,-0.00000374,-0.00000287,-0.00000189,-0.00000459,0.00
 000652,-0.00000038,0.00000081,0.00000011,-0.00002716,-0.00004558,0.000
 03604,0.00002199,-0.00002023,-0.00000148,0.00000469,0.00001631,0.00000
 276,-0.00001372,0.00000050,-0.00002332,0.00934619,0.01508150,-0.022444
 22,0.00354857,-0.00527856,0.00013630,-0.04942445,-0.08948265,0.0883960
 2,0.05007961,0.09495127,-0.00001391,-0.00005186,-0.00008576,0.00008536
 ,-0.00002977,-0.00007095,0.00006337,-0.00071045,0.00028772,-0.00001765
 ,0.00026083,0.00011300,0.00000211,-0.00005573,0.00006700,0.00005005,0.
 00000797,-0.00006157,-0.00003869,0.00001472,0.00006898,-0.00004143,-0.
 00008360,0.00000951,-0.00070946,-0.00087705,0.00158703,-0.00001796,0.0
 0003473,0.00007455,0.00000910,0.00001142,-0.00004300,-0.00000787,-0.00
 000727,-0.00000491,-0.00001073,-0.00005629,0.00000186,-0.00004811,0.00
 002557,-0.00005578,-0.00000421,0.00000417,0.00005416,0.00000025,0.0000
 2186,0.00001744,-0.00000824,-0.00000558,0.00000634,-0.00004503,-0.0000
 0867,0.00000810,-0.00002544,-0.00000590,-0.00001030,0.00000222,0.00000
 293,0.00000184,0.00000168,-0.00000244,-0.00000137,-0.00000003,0.000001
 33,-0.00000568,0.00002826,0.00001639,-0.00001207,-0.00000239,-0.000003
 48,0.00000024,-0.00000307,-0.00000628,0.00000464,-0.00000255,0.0000007
 9,0.00000172,0.00004463,0.00005487,0.00000914,-0.00003480,-0.00000569,
 0.00001787,-0.00001173,-0.00001751,-0.00000498,0.00000680,-0.00000206,
 0.00000885,0.00827871,0.01178249,-0.01657004,0.00011238,-0.00313510,0.
 00016443,0.09415316,0.08850351,-0.22929085,-0.10405004,-0.09692530,0.2
 4607152,0.00002052,-0.00002673,-0.00003211,0.00009371,0.00001687,0.000
 00541,0.00010498,0.00012767,0.00060829,-0.00013667,0.00018486,0.000041
 64,0.00003802,0.00002019,0.00000973,0.00005878,0.00000436,0.00001126,-
 0.00005413,-0.00001442,-0.00000666,-0.00001060,-0.00019119,-0.00002716
 ,0.00003454,-0.00176371,-0.00072547,-0.00005669,0.00001866,0.00002321,
 0.00004617,-0.00000134,-0.00002463,-0.00000716,-0.00001604,-0.00001147
 ,0.00000948,-0.00000419,-0.00000059,-0.00004454,-0.00018170,-0.0000935
 0,0.00002787,0.00001536,-0.00004826,-0.00000003,0.00000917,0.00000570,
 -0.00000483,0.00000080,-0.00000235,0.00001686,-0.00004207,-0.00001202,
 0.00001514,0.00000788,0.00001017,-0.00000002,0.00000180,0.00000094,0.0
 0000042,-0.00000242,-0.00000108,0.00000097,-0.00000091,-0.00000593,-0.
 00000730,-0.00000009,0.00000195,0.00000215,0.00000457,0.00000076,-0.00
 000537,0.00000093,-0.00000571,0.00000012,-0.00000302,-0.00000032,0.000
 08714,0.00007438,0.00001850,-0.00009131,0.00002876,0.00003733,-0.00002
 312,-0.00004542,-0.00002872,0.00003291,0.00000622,0.00003282,-0.011593
 45,0.00530043,-0.00425154,0.00100678,0.00152195,0.00269036,-0.17970967
 ,0.10292584,-0.09582691,0.01005821,-0.00835367,0.00652127,0.19390761,0
 .00002264,-0.00011622,-0.00009122,0.00003095,-0.00000393,-0.00000475,-
 0.00016196,0.00042907,-0.00055663,0.00014075,-0.00028503,-0.00008935,-
 0.00004428,0.00002922,-0.00004408,0.00010076,-0.00001466,-0.00005183,-
 0.00003022,0.00005071,0.00007659,-0.00015972,0.00010926,0.00018048,-0.
 00163312,0.00047762,-0.00175939,-0.00004588,0.00007228,0.00008136,-0.0
 0002267,-0.00006524,-0.00007899,-0.00001192,0.00000884,-0.00000550,0.0
 0000315,-0.00002468,0.00001049,-0.00000436,0.00017390,0.00011205,-0.00
 007225,0.00001075,0.00010853,-0.00000542,-0.00001801,-0.00001788,-0.00
 001420,-0.00000574,0.00000501,-0.00005248,0.00001334,0.00002007,-0.000
 03520,-0.00000891,-0.00001607,0.00000261,0.00000192,0.00000251,0.00000
 324,-0.00000189,-0.00000161,-0.00000328,-0.00000082,-0.00000863,0.0000
 2915,0.00002095,-0.00001160,-0.00000468,-0.00000432,-0.00000065,-0.000
 00239,-0.00000685,0.00000793,-0.00000290,0.00000096,0.00000250,0.00009
 455,0.00010986,-0.00009190,0.00000093,-0.00002311,-0.00001450,-0.00001
 827,-0.00000053,0.00002478,-0.00000335,0.00000760,-0.00002211,0.017633
 51,-0.01247210,0.01666632,-0.00000097,-0.00048544,-0.00388846,0.102571
 21,-0.12262149,0.06656244,0.00872699,-0.00691108,0.00501509,-0.1136383
 3,0.12900901,-0.00000365,-0.00001702,0.00003460,-0.00005138,0.00007168
 ,0.00002523,0.00007757,0.00055409,-0.00010562,0.00015943,-0.00037844,0
 .00001141,-0.00005888,0.00001697,-0.00003405,0.00000520,-0.00002071,0.
 00000023,0.00002740,0.00001615,-0.00000346,-0.00012471,0.00034151,0.00
 009715,-0.00073136,0.00035362,-0.00090812,0.00000897,0.00000984,-0.000
 01881,-0.00002224,-0.00004562,0.00002540,-0.00000336,0.00001979,0.0000
 0435,-0.00001119,0.00000957,-0.00000798,0.00007978,0.00005175,-0.00000
 107,-0.00005002,0.00002531,0.00010775,-0.00000495,-0.00002282,-0.00002
 722,-0.00000371,-0.00000210,0.00000116,-0.00000876,0.00003243,-0.00000
 512,-0.00000560,-0.00000562,-0.00000584,0.00000030,-0.00000274,-0.0000
 0048,-0.00000063,0.00000270,0.00000026,-0.00000398,-0.00000318,0.00000
 295,-0.00000001,0.00000620,0.00000624,-0.00000270,-0.00000467,-0.00000
 357,0.00000256,-0.00000200,0.00000814,-0.00000024,0.00000131,-0.000000
 52,-0.00001252,-0.00004736,-0.00002512,0.00007875,-0.00001993,-0.00001
 113,0.00000461,0.00005279,0.00002980,-0.00003200,0.00000267,-0.0000693
 8,0.01623245,-0.01172130,0.01345146,0.00173509,-0.00066213,-0.00553235
 ,-0.09456236,0.06602708,-0.10248780,-0.01992191,0.01375053,-0.01165082
 ,0.10054930,-0.07269371,0.11152580,-0.00001496,0.00004928,0.00002658,-
 0.00019089,0.00006305,0.00014183,0.00071898,0.00060865,0.00043337,0.00
 001089,0.00006489,-0.00006921,-0.00000381,-0.00004005,0.00001199,-0.00
 003708,0.00002725,-0.00006385,0.00009890,0.00012819,0.00007228,0.00002
 869,-0.00003057,-0.00000573,0.00010707,0.00271996,0.00213514,0.0000340
 5,-0.00003351,-0.00001846,-0.00000317,0.00001813,0.00003051,0.00001088
 ,0.00000035,0.00001075,-0.00000407,0.00001565,-0.00000189,0.00002243,-
 0.00004743,-0.00005651,0.00000134,-0.00001223,0.00000294,-0.00000006,0
 .00000794,0.00000990,0.00000147,-0.00000235,0.00000454,-0.00001355,0.0
 0000421,0.00000527,0.00000139,-0.00000141,-0.00000173,-0.00000018,-0.0
 0000042,-0.00000064,-0.00000114,0.00000093,0.00000097,0.00000149,0.000
 00144,0.00000359,0.00001237,0.00000608,-0.00000432,-0.00000223,-0.0000
 0186,0.00000007,0.00000171,-0.00000247,0.00000190,-0.00000048,0.000001
 86,0.00000114,-0.00001737,-0.00001339,0.00001708,0.00001379,-0.0000058
 9,-0.00000640,0.00000712,0.00000390,0.00000107,-0.00000710,-0.00000701
 ,0.00000486,0.00900258,0.00824814,0.00332358,0.00062612,0.00010040,-0.
 00022668,-0.21532669,-0.13315960,-0.05741480,-0.00796039,-0.00481580,-
 0.00426599,-0.01381749,-0.01339260,-0.00334524,0.22669936,0.00002811,-
 0.00002823,0.00003078,0.00032937,-0.00005415,-0.00016579,-0.00110193,0
 .00016422,-0.00015453,-0.00002978,-0.00030028,0.00003582,0.00000354,0.
 00014382,-0.00008260,0.00004207,-0.00004524,0.00016038,-0.00015624,-0.
 00022422,-0.00017878,0.00001696,0.00010733,-0.00005078,0.00167247,-0.0
 0422267,-0.00438138,-0.00006006,0.00002349,-0.00003987,0.00001507,-0.0
 0002604,-0.00000746,-0.00001242,-0.00000082,-0.00001718,0.00000801,0.0
 0001664,0.00000034,-0.00003722,-0.00005843,0.00000249,0.00000906,0.000
 01316,-0.00006081,-0.00000093,-0.00003677,-0.00003284,0.00000048,0.000
 00616,-0.00001367,0.00007018,-0.00001529,-0.00002100,0.00003371,0.0000
 1462,0.00001943,-0.00000142,-0.00000239,-0.00000045,-0.00000010,0.0000
 0005,-0.00000066,-0.00000209,-0.00000380,-0.00000112,-0.00004795,-0.00
 002075,0.00002419,0.00000541,0.00000555,-0.00000224,-0.00000064,0.0000
 0805,-0.00000795,0.00000388,-0.00000342,-0.00000368,-0.00004190,-0.000
 05515,0.00000936,0.00001178,0.00001353,-0.00001022,0.00000693,0.000009
 75,-0.00000069,0.00000771,0.00001436,-0.00001120,-0.02143409,-0.014522
 72,-0.00325610,0.00060105,0.00238451,0.00205473,-0.12650600,-0.1479541
 0,-0.04469010,-0.00694383,-0.00684160,-0.00376866,0.01401456,0.0125447
 5,0.00430335,0.13949627,0.15894608,0.00000785,-0.00000494,0.00002483,0
 .00032343,-0.00006359,-0.00018803,-0.00074362,-0.00063550,0.00070431,-
 0.00007548,-0.00004789,0.00017168,0.00000141,0.00005844,-0.00001327,0.
 00001590,-0.00005060,0.00014728,-0.00014901,-0.00021101,-0.00017504,0.
 00008125,0.00016850,-0.00015488,0.00146796,-0.00449393,-0.00236272,-0.
 00004152,0.00001731,-0.00003638,0.00001903,0.00001062,0.00001087,-0.00
 001185,-0.00000585,-0.00001717,0.00001179,-0.00001159,-0.00000731,0.00
 001619,-0.00014916,-0.00008862,0.00001814,-0.00000064,-0.00003418,0.00
 000152,-0.00001829,-0.00002005,0.00000369,0.00000413,-0.00001100,0.000
 04924,0.00000669,-0.00002970,0.00002449,0.00001017,0.00001647,-0.00000
 129,-0.00000285,-0.00000046,0.00000007,-0.00000023,-0.00000100,-0.0000
 0156,-0.00000281,0.00000043,-0.00004268,-0.00002451,0.00002150,0.00000
 256,0.00000202,-0.00000394,0.00000324,0.00000574,-0.00000113,0.0000033
 4,0.00000037,-0.00000110,-0.00016124,-0.00015257,0.00006195,0.00004721
 ,-0.00000803,-0.00001569,0.00003137,0.00002895,0.00000236,-0.00000294,
 0.00000805,-0.00001108,-0.01835684,-0.00977432,-0.00623702,0.00020578,
 0.00203295,0.00094853,-0.05258482,-0.04322589,-0.06564692,0.02005948,0
 .01563865,0.00929213,-0.00946419,-0.00942726,-0.00443346,0.05924209,0.
 05031888,0.06808780\\-0.00000170,0.00000578,0.00001187,-0.00001034,-0.
 00001006,-0.00000815,0.00000118,0.00000896,0.00000316,-0.00000116,0.00
 000937,-0.00000022,-0.00001462,-0.00000026,0.00000223,0.00001194,0.000
 00346,-0.00001621,-0.00000834,0.00000037,0.00000198,0.00000365,-0.0000
 0756,0.00000629,-0.00000289,-0.00000815,0.00000387,0.00000873,0.000006
 05,-0.00001710,0.00000107,-0.00000013,-0.00000597,-0.00000200,0.000001
 00,-0.00001131,-0.00000470,-0.00000373,-0.00000620,-0.00000659,-0.0000
 0374,0.00000203,0.00000177,-0.00000172,0.00000581,0.00000784,0.0000061
 2,0.00000170,-0.00000005,0.00000325,-0.00000546,0.00000660,-0.00000219
 ,0.00000264,-0.00000505,-0.00000124,-0.00001393,0.00000532,0.00000760,
 -0.00000924,0.00000251,0.00000573,-0.00001303,0.00000463,0.00000563,-0
 .00001054,0.00000523,0.00000025,0.00000135,0.00000636,0.00000417,0.000
 00473,0.00000351,0.00000019,0.00000695,0.00000291,0.00000121,0.0000041
 6,0.00000499,0.00001438,0.00000779,0.00000287,-0.00000141,0.00000466,0
 .00000929,0.00000199,0.00000714,0.00000604,-0.00000183,0.00000615,0.00
 000020,0.00000090,0.00000080,-0.00000901,-0.00001143,0.00000621,-0.000
 00260,-0.00000762,0.00000565,-0.00001113,-0.00000832,0.00000517,-0.000
 00764,-0.00000544,0.00000632,-0.00000884,-0.00001157,0.00000870\\\@


 Change starts when someone sees the next step.
                            -- William Drayton
 Job cpu time:       0 days  7 hours 12 minutes 50.8 seconds.
 File lengths (MBytes):  RWF=    766 Int=      0 D2E=      0 Chk=     19 Scr=      1
 Normal termination of Gaussian 09 at Tue Jan 10 09:24:43 2017.
