 Entering Gaussian System, Link 0=g09
 Initial command:
 /share/apps//g09/l1.exe "/scratch/Gau-47494.inp" -scrdir="/scratch/"
 Entering Link 1 = /share/apps//g09/l1.exe PID=     47495.
  
 Copyright (c) 1988,1990,1992,1993,1995,1998,2003,2009,2013,
            Gaussian, Inc.  All Rights Reserved.
  
 This is part of the Gaussian(R) 09 program.  It is based on
 the Gaussian(R) 03 system (copyright 2003, Gaussian, Inc.),
 the Gaussian(R) 98 system (copyright 1998, Gaussian, Inc.),
 the Gaussian(R) 94 system (copyright 1995, Gaussian, Inc.),
 the Gaussian 92(TM) system (copyright 1992, Gaussian, Inc.),
 the Gaussian 90(TM) system (copyright 1990, Gaussian, Inc.),
 the Gaussian 88(TM) system (copyright 1988, Gaussian, Inc.),
 the Gaussian 86(TM) system (copyright 1986, Carnegie Mellon
 University), and the Gaussian 82(TM) system (copyright 1983,
 Carnegie Mellon University). Gaussian is a federally registered
 trademark of Gaussian, Inc.
  
 This software contains proprietary and confidential information,
 including trade secrets, belonging to Gaussian, Inc.
  
 This software is provided under written license and may be
 used, copied, transmitted, or stored only in accord with that
 written license.
  
 The following legend is applicable only to US Government
 contracts under FAR:
  
                    RESTRICTED RIGHTS LEGEND
  
 Use, reproduction and disclosure by the US Government is
 subject to restrictions as set forth in subparagraphs (a)
 and (c) of the Commercial Computer Software - Restricted
 Rights clause in FAR 52.227-19.
  
 Gaussian, Inc.
 340 Quinnipiac St., Bldg. 40, Wallingford CT 06492
  
  
 ---------------------------------------------------------------
 Warning -- This program may not be used in any manner that
 competes with the business of Gaussian, Inc. or will provide
 assistance to any competitor of Gaussian, Inc.  The licensee
 of this program is prohibited from giving any competitor of
 Gaussian, Inc. access to this program.  By using this program,
 the user acknowledges that Gaussian, Inc. is engaged in the
 business of creating and licensing software in the field of
 computational chemistry and represents and warrants to the
 licensee that it is not a competitor of Gaussian, Inc. and that
 it will not use this program in any manner prohibited above.
 ---------------------------------------------------------------
  

 Cite this work as:
 Gaussian 09, Revision D.01,
 M. J. Frisch, G. W. Trucks, H. B. Schlegel, G. E. Scuseria, 
 M. A. Robb, J. R. Cheeseman, G. Scalmani, V. Barone, B. Mennucci, 
 G. A. Petersson, H. Nakatsuji, M. Caricato, X. Li, H. P. Hratchian, 
 A. F. Izmaylov, J. Bloino, G. Zheng, J. L. Sonnenberg, M. Hada, 
 M. Ehara, K. Toyota, R. Fukuda, J. Hasegawa, M. Ishida, T. Nakajima, 
 Y. Honda, O. Kitao, H. Nakai, T. Vreven, J. A. Montgomery, Jr., 
 J. E. Peralta, F. Ogliaro, M. Bearpark, J. J. Heyd, E. Brothers, 
 K. N. Kudin, V. N. Staroverov, T. Keith, R. Kobayashi, J. Normand, 
 K. Raghavachari, A. Rendell, J. C. Burant, S. S. Iyengar, J. Tomasi, 
 M. Cossi, N. Rega, J. M. Millam, M. Klene, J. E. Knox, J. B. Cross, 
 V. Bakken, C. Adamo, J. Jaramillo, R. Gomperts, R. E. Stratmann, 
 O. Yazyev, A. J. Austin, R. Cammi, C. Pomelli, J. W. Ochterski, 
 R. L. Martin, K. Morokuma, V. G. Zakrzewski, G. A. Voth, 
 P. Salvador, J. J. Dannenberg, S. Dapprich, A. D. Daniels, 
 O. Farkas, J. B. Foresman, J. V. Ortiz, J. Cioslowski, 
 and D. J. Fox, Gaussian, Inc., Wallingford CT, 2013.
 
 ******************************************
 Gaussian 09:  EM64L-G09RevD.01 24-Apr-2013
                24-Oct-2017 
 ******************************************
 %nproc=20
 Will use up to   20 processors via shared memory.
 %mem=100GB
 %chk=Ac-4_cGalMe.chk
 -------------------------------------------------------------------
 #P PBE1PBE/6-311+G(d,p) opt optcyc=999 freq EmpiricalDispersion=GD3
 -------------------------------------------------------------------
 1/6=999,14=-1,18=20,19=15,26=3,38=1/1,3;
 2/9=110,12=2,17=6,18=5,40=1/2;
 3/5=4,6=6,7=111,11=2,16=1,25=1,30=1,71=1,74=-13,124=31/1,2,3;
 4//1;
 5/5=2,38=5/2;
 6/7=2,8=2,9=2,10=2,28=1/1;
 7//1,2,3,16;
 1/6=999,14=-1,18=20,19=15,26=3/3(2);
 2/9=110/2;
 99//99;
 2/9=110/2;
 3/5=4,6=6,7=111,11=2,16=1,25=1,30=1,71=1,74=-13,124=31/1,2,3;
 4/5=5,16=3,69=1/1;
 5/5=2,38=5/2;
 7//1,2,3,16;
 1/6=999,14=-1,18=20,19=15,26=3/3(-5);
 2/9=110/2;
 6/7=2,8=2,9=2,10=2,19=2,28=1/1;
 99/9=1/99;
 Leave Link    1 at Tue Oct 24 12:45:24 2017, MaxMem= 13421772800 cpu:         1.7
 (Enter /share/apps//g09/l101.exe)
 -------
 disacch
 -------
 Symbolic Z-matrix:
 Charge =  1 Multiplicity = 1
 C                    -2.01833   0.681     1.31616 
 C                    -0.56717   0.28246   1.09743 
 C                     0.42358   1.43379   1.0916 
 C                     1.88862   0.9405    0.94023 
 C                     1.94439  -0.28555  -0.01106 
 C                     0.66501  -0.36125  -0.8348 
 O                    -0.4977   -0.43323  -0.18535 
 O                     2.75923   1.9278    0.43354 
 O                     0.10058   2.40763   0.01023 
 O                    -2.73478  -0.49873   1.58495 
 H                    -2.40913   1.20199   0.41898 
 H                    -2.06603   1.39257   2.16734 
 H                    -0.27544  -0.4323    1.88586 
 H                     0.29577   2.04623   1.99285 
 H                     2.20136   0.6014    1.94705 
 H                     2.80265  -0.14739  -0.69229 
 H                     0.67712  -1.06974  -1.66821 
 O                     1.99288  -1.51687   0.67695 
 C                    -4.14448  -0.27368   1.68699 
 H                    -4.60009  -1.24795   1.89212 
 H                    -4.38073   0.42025   2.51204 
 H                    -4.55203   0.12954   0.74401 
 C                     3.32582  -1.92964   1.0303 
 H                     3.94717  -2.05324   0.1294 
 H                     3.8081   -1.21074   1.7128 
 H                     3.21701  -2.89254   1.53897 
 C                     3.07967   2.97768   1.36395 
 H                     2.2194    3.64142   1.549 
 H                     3.43518   2.55754   2.31854 
 H                     3.88547   3.55736   0.90205 
 C                     0.41128   2.16995  -1.23876 
 O                     0.72026   1.03758  -1.73105 
 C                     0.37054   3.34879  -2.13858 
 H                     1.34493   3.85641  -2.06449 
 H                    -0.40083   4.05374  -1.80999 
 H                     0.2143    3.03717  -3.17495 
 
 NAtoms=     36 NQM=       36 NQMF=       0 NMMI=      0 NMMIF=      0
                NMic=       0 NMicF=      0.
                    Isotopes and Nuclear Properties:
 (Nuclear quadrupole moments (NQMom) in fm**2, nuclear magnetic moments (NMagM)
  in nuclear magnetons)

  Atom         1           2           3           4           5           6           7           8           9          10
 IAtWgt=          12          12          12          12          12          12          16          16          16          16
 AtmWgt=  12.0000000  12.0000000  12.0000000  12.0000000  12.0000000  12.0000000  15.9949146  15.9949146  15.9949146  15.9949146
 NucSpn=           0           0           0           0           0           0           0           0           0           0
 AtZEff=   0.0000000   0.0000000   0.0000000   0.0000000   0.0000000   0.0000000   0.0000000   0.0000000   0.0000000   0.0000000
 NQMom=    0.0000000   0.0000000   0.0000000   0.0000000   0.0000000   0.0000000   0.0000000   0.0000000   0.0000000   0.0000000
 NMagM=    0.0000000   0.0000000   0.0000000   0.0000000   0.0000000   0.0000000   0.0000000   0.0000000   0.0000000   0.0000000
 AtZNuc=   6.0000000   6.0000000   6.0000000   6.0000000   6.0000000   6.0000000   8.0000000   8.0000000   8.0000000   8.0000000

  Atom        11          12          13          14          15          16          17          18          19          20
 IAtWgt=           1           1           1           1           1           1           1          16          12           1
 AtmWgt=   1.0078250   1.0078250   1.0078250   1.0078250   1.0078250   1.0078250   1.0078250  15.9949146  12.0000000   1.0078250
 NucSpn=           1           1           1           1           1           1           1           0           0           1
 AtZEff=   0.0000000   0.0000000   0.0000000   0.0000000   0.0000000   0.0000000   0.0000000   0.0000000   0.0000000   0.0000000
 NQMom=    0.0000000   0.0000000   0.0000000   0.0000000   0.0000000   0.0000000   0.0000000   0.0000000   0.0000000   0.0000000
 NMagM=    2.7928460   2.7928460   2.7928460   2.7928460   2.7928460   2.7928460   2.7928460   0.0000000   0.0000000   2.7928460
 AtZNuc=   1.0000000   1.0000000   1.0000000   1.0000000   1.0000000   1.0000000   1.0000000   8.0000000   6.0000000   1.0000000

  Atom        21          22          23          24          25          26          27          28          29          30
 IAtWgt=           1           1          12           1           1           1          12           1           1           1
 AtmWgt=   1.0078250   1.0078250  12.0000000   1.0078250   1.0078250   1.0078250  12.0000000   1.0078250   1.0078250   1.0078250
 NucSpn=           1           1           0           1           1           1           0           1           1           1
 AtZEff=   0.0000000   0.0000000   0.0000000   0.0000000   0.0000000   0.0000000   0.0000000   0.0000000   0.0000000   0.0000000
 NQMom=    0.0000000   0.0000000   0.0000000   0.0000000   0.0000000   0.0000000   0.0000000   0.0000000   0.0000000   0.0000000
 NMagM=    2.7928460   2.7928460   0.0000000   2.7928460   2.7928460   2.7928460   0.0000000   2.7928460   2.7928460   2.7928460
 AtZNuc=   1.0000000   1.0000000   6.0000000   1.0000000   1.0000000   1.0000000   6.0000000   1.0000000   1.0000000   1.0000000

  Atom        31          32          33          34          35          36
 IAtWgt=          12          16          12           1           1           1
 AtmWgt=  12.0000000  15.9949146  12.0000000   1.0078250   1.0078250   1.0078250
 NucSpn=           0           0           0           1           1           1
 AtZEff=   0.0000000   0.0000000   0.0000000   0.0000000   0.0000000   0.0000000
 NQMom=    0.0000000   0.0000000   0.0000000   0.0000000   0.0000000   0.0000000
 NMagM=    0.0000000   0.0000000   0.0000000   2.7928460   2.7928460   2.7928460
 AtZNuc=   6.0000000   8.0000000   6.0000000   1.0000000   1.0000000   1.0000000
 Leave Link  101 at Tue Oct 24 12:45:25 2017, MaxMem= 13421772800 cpu:         3.8
 (Enter /share/apps//g09/l103.exe)

 GradGradGradGradGradGradGradGradGradGradGradGradGradGradGradGradGradGrad
 Berny optimization.
 Initialization pass.
                           ----------------------------
                           !    Initial Parameters    !
                           ! (Angstroms and Degrees)  !
 --------------------------                            --------------------------
 ! Name  Definition              Value          Derivative Info.                !
 --------------------------------------------------------------------------------
 ! R1    R(1,2)                  1.5207         estimate D2E/DX2                !
 ! R2    R(1,10)                 1.4062         estimate D2E/DX2                !
 ! R3    R(1,11)                 1.1086         estimate D2E/DX2                !
 ! R4    R(1,12)                 1.1105         estimate D2E/DX2                !
 ! R5    R(2,3)                  1.5189         estimate D2E/DX2                !
 ! R6    R(2,7)                  1.4706         estimate D2E/DX2                !
 ! R7    R(2,13)                 1.1035         estimate D2E/DX2                !
 ! R8    R(3,4)                  1.5533         estimate D2E/DX2                !
 ! R9    R(3,9)                  1.4907         estimate D2E/DX2                !
 ! R10   R(3,14)                 1.0971         estimate D2E/DX2                !
 ! R11   R(4,5)                  1.5528         estimate D2E/DX2                !
 ! R12   R(4,8)                  1.4105         estimate D2E/DX2                !
 ! R13   R(4,15)                 1.1075         estimate D2E/DX2                !
 ! R14   R(5,6)                  1.5235         estimate D2E/DX2                !
 ! R15   R(5,16)                 1.1044         estimate D2E/DX2                !
 ! R16   R(5,18)                 1.4113         estimate D2E/DX2                !
 ! R17   R(6,7)                  1.3337         estimate D2E/DX2                !
 ! R18   R(6,17)                 1.0939         estimate D2E/DX2                !
 ! R19   R(6,32)                 1.6622         estimate D2E/DX2                !
 ! R20   R(8,27)                 1.439          estimate D2E/DX2                !
 ! R21   R(9,31)                 1.3088         estimate D2E/DX2                !
 ! R22   R(10,19)                1.4312         estimate D2E/DX2                !
 ! R23   R(18,23)                1.4394         estimate D2E/DX2                !
 ! R24   R(19,20)                1.0949         estimate D2E/DX2                !
 ! R25   R(19,21)                1.1037         estimate D2E/DX2                !
 ! R26   R(19,22)                1.1036         estimate D2E/DX2                !
 ! R27   R(23,24)                1.1014         estimate D2E/DX2                !
 ! R28   R(23,25)                1.1024         estimate D2E/DX2                !
 ! R29   R(23,26)                1.0944         estimate D2E/DX2                !
 ! R30   R(27,28)                1.1022         estimate D2E/DX2                !
 ! R31   R(27,29)                1.1019         estimate D2E/DX2                !
 ! R32   R(27,30)                1.0948         estimate D2E/DX2                !
 ! R33   R(31,32)                1.2728         estimate D2E/DX2                !
 ! R34   R(31,33)                1.4836         estimate D2E/DX2                !
 ! R35   R(33,34)                1.1012         estimate D2E/DX2                !
 ! R36   R(33,35)                1.0954         estimate D2E/DX2                !
 ! R37   R(33,36)                1.0934         estimate D2E/DX2                !
 ! A1    A(2,1,10)             107.0871         estimate D2E/DX2                !
 ! A2    A(2,1,11)             110.0684         estimate D2E/DX2                !
 ! A3    A(2,1,12)             108.6132         estimate D2E/DX2                !
 ! A4    A(10,1,11)            111.6755         estimate D2E/DX2                !
 ! A5    A(10,1,12)            111.6661         estimate D2E/DX2                !
 ! A6    A(11,1,12)            107.7002         estimate D2E/DX2                !
 ! A7    A(1,2,3)              115.1088         estimate D2E/DX2                !
 ! A8    A(1,2,7)              107.3431         estimate D2E/DX2                !
 ! A9    A(1,2,13)             108.6192         estimate D2E/DX2                !
 ! A10   A(3,2,7)              109.5562         estimate D2E/DX2                !
 ! A11   A(3,2,13)             108.7403         estimate D2E/DX2                !
 ! A12   A(7,2,13)             107.1898         estimate D2E/DX2                !
 ! A13   A(2,3,4)              112.0163         estimate D2E/DX2                !
 ! A14   A(2,3,9)              110.8938         estimate D2E/DX2                !
 ! A15   A(2,3,14)             110.1199         estimate D2E/DX2                !
 ! A16   A(4,3,9)              109.9475         estimate D2E/DX2                !
 ! A17   A(4,3,14)             111.5442         estimate D2E/DX2                !
 ! A18   A(9,3,14)             101.8875         estimate D2E/DX2                !
 ! A19   A(3,4,5)              110.1409         estimate D2E/DX2                !
 ! A20   A(3,4,8)              113.2595         estimate D2E/DX2                !
 ! A21   A(3,4,15)             105.9621         estimate D2E/DX2                !
 ! A22   A(5,4,8)              108.0852         estimate D2E/DX2                !
 ! A23   A(5,4,15)             107.7608         estimate D2E/DX2                !
 ! A24   A(8,4,15)             111.5066         estimate D2E/DX2                !
 ! A25   A(4,5,6)              109.8955         estimate D2E/DX2                !
 ! A26   A(4,5,16)             107.8792         estimate D2E/DX2                !
 ! A27   A(4,5,18)             113.0443         estimate D2E/DX2                !
 ! A28   A(6,5,16)             108.9833         estimate D2E/DX2                !
 ! A29   A(6,5,18)             104.4231         estimate D2E/DX2                !
 ! A30   A(16,5,18)            112.5278         estimate D2E/DX2                !
 ! A31   A(5,6,7)              118.13           estimate D2E/DX2                !
 ! A32   A(5,6,17)             115.7729         estimate D2E/DX2                !
 ! A33   A(5,6,32)             102.8149         estimate D2E/DX2                !
 ! A34   A(7,6,17)             110.2229         estimate D2E/DX2                !
 ! A35   A(7,6,32)             109.6906         estimate D2E/DX2                !
 ! A36   A(17,6,32)             97.6939         estimate D2E/DX2                !
 ! A37   A(2,7,6)              116.0832         estimate D2E/DX2                !
 ! A38   A(4,8,27)             114.5753         estimate D2E/DX2                !
 ! A39   A(3,9,31)             121.4797         estimate D2E/DX2                !
 ! A40   A(1,10,19)            112.5542         estimate D2E/DX2                !
 ! A41   A(5,18,23)            113.6825         estimate D2E/DX2                !
 ! A42   A(10,19,20)           106.4573         estimate D2E/DX2                !
 ! A43   A(10,19,21)           111.2854         estimate D2E/DX2                !
 ! A44   A(10,19,22)           111.1176         estimate D2E/DX2                !
 ! A45   A(20,19,21)           109.2896         estimate D2E/DX2                !
 ! A46   A(20,19,22)           109.3614         estimate D2E/DX2                !
 ! A47   A(21,19,22)           109.2679         estimate D2E/DX2                !
 ! A48   A(18,23,24)           110.7208         estimate D2E/DX2                !
 ! A49   A(18,23,25)           111.7219         estimate D2E/DX2                !
 ! A50   A(18,23,26)           105.9218         estimate D2E/DX2                !
 ! A51   A(24,23,25)           109.4391         estimate D2E/DX2                !
 ! A52   A(24,23,26)           109.7273         estimate D2E/DX2                !
 ! A53   A(25,23,26)           109.239          estimate D2E/DX2                !
 ! A54   A(8,27,28)            111.9696         estimate D2E/DX2                !
 ! A55   A(8,27,29)            110.7204         estimate D2E/DX2                !
 ! A56   A(8,27,30)            106.1059         estimate D2E/DX2                !
 ! A57   A(28,27,29)           109.6323         estimate D2E/DX2                !
 ! A58   A(28,27,30)           109.0524         estimate D2E/DX2                !
 ! A59   A(29,27,30)           109.2633         estimate D2E/DX2                !
 ! A60   A(9,31,32)            126.0348         estimate D2E/DX2                !
 ! A61   A(9,31,33)            115.3394         estimate D2E/DX2                !
 ! A62   A(32,31,33)           118.6197         estimate D2E/DX2                !
 ! A63   A(6,32,31)            122.145          estimate D2E/DX2                !
 ! A64   A(31,33,34)           107.5286         estimate D2E/DX2                !
 ! A65   A(31,33,35)           110.4113         estimate D2E/DX2                !
 ! A66   A(31,33,36)           110.6306         estimate D2E/DX2                !
 ! A67   A(34,33,35)           107.8338         estimate D2E/DX2                !
 ! A68   A(34,33,36)           108.7588         estimate D2E/DX2                !
 ! A69   A(35,33,36)           111.537          estimate D2E/DX2                !
 ! D1    D(10,1,2,3)          -167.2843         estimate D2E/DX2                !
 ! D2    D(10,1,2,7)            70.4656         estimate D2E/DX2                !
 ! D3    D(10,1,2,13)          -45.1243         estimate D2E/DX2                !
 ! D4    D(11,1,2,3)            71.1362         estimate D2E/DX2                !
 ! D5    D(11,1,2,7)           -51.1139         estimate D2E/DX2                !
 ! D6    D(11,1,2,13)         -166.7038         estimate D2E/DX2                !
 ! D7    D(12,1,2,3)           -46.5477         estimate D2E/DX2                !
 ! D8    D(12,1,2,7)          -168.7978         estimate D2E/DX2                !
 ! D9    D(12,1,2,13)           75.6122         estimate D2E/DX2                !
 ! D10   D(2,1,10,19)         -174.5107         estimate D2E/DX2                !
 ! D11   D(11,1,10,19)         -53.9483         estimate D2E/DX2                !
 ! D12   D(12,1,10,19)          66.7113         estimate D2E/DX2                !
 ! D13   D(1,2,3,4)            176.9091         estimate D2E/DX2                !
 ! D14   D(1,2,3,9)            -59.8436         estimate D2E/DX2                !
 ! D15   D(1,2,3,14)            52.1602         estimate D2E/DX2                !
 ! D16   D(7,2,3,4)            -62.0386         estimate D2E/DX2                !
 ! D17   D(7,2,3,9)             61.2087         estimate D2E/DX2                !
 ! D18   D(7,2,3,14)           173.2124         estimate D2E/DX2                !
 ! D19   D(13,2,3,4)            54.8143         estimate D2E/DX2                !
 ! D20   D(13,2,3,9)           178.0617         estimate D2E/DX2                !
 ! D21   D(13,2,3,14)          -69.9346         estimate D2E/DX2                !
 ! D22   D(1,2,7,6)            151.9656         estimate D2E/DX2                !
 ! D23   D(3,2,7,6)             26.3252         estimate D2E/DX2                !
 ! D24   D(13,2,7,6)           -91.5002         estimate D2E/DX2                !
 ! D25   D(2,3,4,5)             36.2657         estimate D2E/DX2                !
 ! D26   D(2,3,4,8)            157.4335         estimate D2E/DX2                !
 ! D27   D(2,3,4,15)           -80.0198         estimate D2E/DX2                !
 ! D28   D(9,3,4,5)            -87.5136         estimate D2E/DX2                !
 ! D29   D(9,3,4,8)             33.6542         estimate D2E/DX2                !
 ! D30   D(9,3,4,15)           156.2008         estimate D2E/DX2                !
 ! D31   D(14,3,4,5)           160.2217         estimate D2E/DX2                !
 ! D32   D(14,3,4,8)           -78.6105         estimate D2E/DX2                !
 ! D33   D(14,3,4,15)           43.9362         estimate D2E/DX2                !
 ! D34   D(2,3,9,31)           -78.0201         estimate D2E/DX2                !
 ! D35   D(4,3,9,31)            46.4108         estimate D2E/DX2                !
 ! D36   D(14,3,9,31)          164.8103         estimate D2E/DX2                !
 ! D37   D(3,4,5,6)             17.7534         estimate D2E/DX2                !
 ! D38   D(3,4,5,16)           136.4546         estimate D2E/DX2                !
 ! D39   D(3,4,5,18)           -98.4661         estimate D2E/DX2                !
 ! D40   D(8,4,5,6)           -106.458          estimate D2E/DX2                !
 ! D41   D(8,4,5,16)            12.2432         estimate D2E/DX2                !
 ! D42   D(8,4,5,18)           137.3225         estimate D2E/DX2                !
 ! D43   D(15,4,5,6)           132.9072         estimate D2E/DX2                !
 ! D44   D(15,4,5,16)         -108.3916         estimate D2E/DX2                !
 ! D45   D(15,4,5,18)           16.6877         estimate D2E/DX2                !
 ! D46   D(3,4,8,27)            72.667          estimate D2E/DX2                !
 ! D47   D(5,4,8,27)          -165.0136         estimate D2E/DX2                !
 ! D48   D(15,4,8,27)          -46.7459         estimate D2E/DX2                !
 ! D49   D(4,5,6,7)            -57.3444         estimate D2E/DX2                !
 ! D50   D(4,5,6,17)           168.7553         estimate D2E/DX2                !
 ! D51   D(4,5,6,32)            63.5489         estimate D2E/DX2                !
 ! D52   D(16,5,6,7)          -175.3639         estimate D2E/DX2                !
 ! D53   D(16,5,6,17)           50.7357         estimate D2E/DX2                !
 ! D54   D(16,5,6,32)          -54.4707         estimate D2E/DX2                !
 ! D55   D(18,5,6,7)            64.1835         estimate D2E/DX2                !
 ! D56   D(18,5,6,17)          -69.7168         estimate D2E/DX2                !
 ! D57   D(18,5,6,32)         -174.9232         estimate D2E/DX2                !
 ! D58   D(4,5,18,23)          -86.7386         estimate D2E/DX2                !
 ! D59   D(6,5,18,23)          153.8383         estimate D2E/DX2                !
 ! D60   D(16,5,18,23)          35.7845         estimate D2E/DX2                !
 ! D61   D(5,6,7,2)             33.1107         estimate D2E/DX2                !
 ! D62   D(17,6,7,2)           169.3619         estimate D2E/DX2                !
 ! D63   D(32,6,7,2)           -84.1767         estimate D2E/DX2                !
 ! D64   D(5,6,32,31)          -78.2956         estimate D2E/DX2                !
 ! D65   D(7,6,32,31)           48.2134         estimate D2E/DX2                !
 ! D66   D(17,6,32,31)         162.9737         estimate D2E/DX2                !
 ! D67   D(4,8,27,28)          -70.8876         estimate D2E/DX2                !
 ! D68   D(4,8,27,29)           51.7922         estimate D2E/DX2                !
 ! D69   D(4,8,27,30)          170.2402         estimate D2E/DX2                !
 ! D70   D(3,9,31,32)           16.7378         estimate D2E/DX2                !
 ! D71   D(3,9,31,33)         -164.1736         estimate D2E/DX2                !
 ! D72   D(1,10,19,20)         179.8202         estimate D2E/DX2                !
 ! D73   D(1,10,19,21)         -61.1831         estimate D2E/DX2                !
 ! D74   D(1,10,19,22)          60.8297         estimate D2E/DX2                !
 ! D75   D(5,18,23,24)         -60.3616         estimate D2E/DX2                !
 ! D76   D(5,18,23,25)          61.8957         estimate D2E/DX2                !
 ! D77   D(5,18,23,26)        -179.2559         estimate D2E/DX2                !
 ! D78   D(9,31,32,6)            4.4782         estimate D2E/DX2                !
 ! D79   D(33,31,32,6)        -174.5834         estimate D2E/DX2                !
 ! D80   D(9,31,33,34)          85.557          estimate D2E/DX2                !
 ! D81   D(9,31,33,35)         -31.8443         estimate D2E/DX2                !
 ! D82   D(9,31,33,36)        -155.8056         estimate D2E/DX2                !
 ! D83   D(32,31,33,34)        -95.2826         estimate D2E/DX2                !
 ! D84   D(32,31,33,35)        147.3161         estimate D2E/DX2                !
 ! D85   D(32,31,33,36)         23.3548         estimate D2E/DX2                !
 --------------------------------------------------------------------------------
 Trust Radius=3.00D-01 FncErr=1.00D-07 GrdErr=1.00D-06
 Number of steps in this run=    216 maximum allowed number of steps=    216.
 GradGradGradGradGradGradGradGradGradGradGradGradGradGradGradGradGradGrad

 Leave Link  103 at Tue Oct 24 12:45:25 2017, MaxMem= 13421772800 cpu:         0.2
 (Enter /share/apps//g09/l202.exe)
                          Input orientation:                          
 ---------------------------------------------------------------------
 Center     Atomic      Atomic             Coordinates (Angstroms)
 Number     Number       Type             X           Y           Z
 ---------------------------------------------------------------------
      1          6           0       -2.018330    0.681000    1.316160
      2          6           0       -0.567170    0.282460    1.097430
      3          6           0        0.423580    1.433790    1.091600
      4          6           0        1.888620    0.940500    0.940230
      5          6           0        1.944390   -0.285550   -0.011060
      6          6           0        0.665010   -0.361250   -0.834800
      7          8           0       -0.497700   -0.433230   -0.185350
      8          8           0        2.759230    1.927800    0.433540
      9          8           0        0.100580    2.407630    0.010230
     10          8           0       -2.734780   -0.498730    1.584950
     11          1           0       -2.409130    1.201990    0.418980
     12          1           0       -2.066030    1.392570    2.167340
     13          1           0       -0.275440   -0.432300    1.885860
     14          1           0        0.295770    2.046230    1.992850
     15          1           0        2.201360    0.601400    1.947050
     16          1           0        2.802650   -0.147390   -0.692290
     17          1           0        0.677120   -1.069740   -1.668210
     18          8           0        1.992880   -1.516870    0.676950
     19          6           0       -4.144480   -0.273680    1.686990
     20          1           0       -4.600090   -1.247950    1.892120
     21          1           0       -4.380730    0.420250    2.512040
     22          1           0       -4.552030    0.129540    0.744010
     23          6           0        3.325820   -1.929640    1.030300
     24          1           0        3.947170   -2.053240    0.129400
     25          1           0        3.808100   -1.210740    1.712800
     26          1           0        3.217010   -2.892540    1.538970
     27          6           0        3.079670    2.977680    1.363950
     28          1           0        2.219400    3.641420    1.549000
     29          1           0        3.435180    2.557540    2.318540
     30          1           0        3.885470    3.557360    0.902050
     31          6           0        0.411280    2.169950   -1.238760
     32          8           0        0.720260    1.037580   -1.731050
     33          6           0        0.370540    3.348790   -2.138580
     34          1           0        1.344930    3.856410   -2.064490
     35          1           0       -0.400830    4.053740   -1.809990
     36          1           0        0.214300    3.037170   -3.174950
 ---------------------------------------------------------------------
                    Distance matrix (angstroms):
                    1          2          3          4          5
     1  C    0.000000
     2  C    1.520705   0.000000
     3  C    2.565160   1.518941   0.000000
     4  C    3.933564   2.547280   1.553251   0.000000
     5  C    4.289392   2.803448   2.546537   1.552824   0.000000
     6  C    3.593498   2.380366   2.644140   2.518433   1.523513
     7  O    2.410053   1.470565   2.442360   2.974658   2.452752
     8  O    5.015836   3.769991   2.476358   1.410481   2.400115
     9  O    3.029271   2.478758   1.490656   2.492881   3.263940
    10  O    1.406169   2.355094   3.735407   4.884964   4.948467
    11  H    1.108642   2.167636   2.920684   4.337134   4.620698
    12  H    1.110457   2.150263   2.712393   4.165264   4.862611
    13  H    2.145148   1.103454   2.145174   2.731657   2.923608
    14  H    2.770708   2.158084   1.097119   2.206313   3.488668
    15  H    4.267334   2.913475   2.141301   1.107466   2.164927
    16  H    5.287906   3.839734   3.367843   2.164273   1.104433
    17  H    4.386001   3.320462   3.734769   3.508954   2.228693
    18  O    4.618336   3.157253   3.367645   2.473632   1.411332
    19  C    2.359967   3.667972   4.912954   6.199208   6.321222
    20  H    3.273845   4.386129   5.750637   6.913665   6.883206
    21  H    2.660649   4.069809   5.111390   6.484288   6.846264
    22  H    2.655391   4.003423   5.155442   6.494469   6.553312
    23  C    5.954586   4.478087   4.442906   3.211131   2.386590
    24  H    6.668707   5.174151   5.049841   3.722573   2.674992
    25  H    6.138672   4.663830   4.339862   2.984812   2.702052
    26  H    6.342603   4.959395   5.169190   4.100647   3.289157
    27  C    5.591657   4.542542   3.084248   2.397549   3.718627
    28  H    5.174617   4.387653   2.882328   2.788366   4.234443
    29  H    5.853797   4.762972   3.440629   2.628004   3.966441
    30  H    6.580257   5.530746   4.065730   3.291933   4.401082
    31  C    3.827217   3.158760   2.443903   2.905525   3.144384
    32  O    4.112483   3.198122   2.865721   2.917229   2.491492
    33  C    4.975845   4.555594   3.755543   4.193268   4.495750
    34  H    5.729183   5.140718   4.083978   4.222141   4.661734
    35  H    4.874884   4.764799   3.995374   4.743159   5.250299
    36  H    5.541321   5.143185   4.562683   4.912645   4.903456
                    6          7          8          9         10
     6  C    0.000000
     7  O    1.333739   0.000000
     8  O    3.351745   4.070022   0.000000
     9  O    2.949467   2.909755   2.734565   0.000000
    10  O    4.175244   2.853556   6.115385   4.354990   0.000000
    11  H    3.669608   2.587030   5.219095   2.814123   2.087578
    12  H    4.421234   3.365762   5.155159   3.221439   2.088880
    13  H    2.879494   2.083101   4.109565   3.424118   2.478571
    14  H    3.732011   3.394388   2.917895   2.024720   3.978371
    15  H    3.320505   3.592007   2.088365   3.380387   5.070195
    16  H    2.153033   3.351269   2.361312   3.784553   5.997699
    17  H    1.093927   1.996051   4.211625   3.904057   4.748701
    18  O    2.320363   2.849706   3.537272   4.407609   4.920553
    19  C    5.431233   4.102453   7.353833   5.293532   1.431193
    20  H    5.995299   4.670038   8.146928   6.245084   2.033486
    21  H    6.105045   4.804400   7.587615   5.503714   2.100755
    22  H    5.472753   4.197382   7.535559   5.232103   2.098643
    23  C    3.608096   4.282097   3.944235   5.500421   6.251881
    24  H    3.816423   4.741347   4.165619   5.891504   7.013101
    25  H    4.134116   4.769424   3.547826   5.453169   6.582749
    26  H    4.307542   4.777087   4.966610   6.335691   6.415313
    27  C    4.670497   5.179982   1.438955   3.321520   6.778060
    28  H    4.911211   5.195515   2.114748   2.894728   6.456472
    29  H    5.112409   5.539108   2.099216   4.058365   6.924402
    30  H    5.361298   6.026560   2.035530   4.054949   7.793967
    31  C    2.575759   2.951688   2.892766   1.308817   4.999288
    32  O    1.662240   2.456806   3.104084   2.300673   5.029255
    33  C    3.943469   4.344263   3.786932   2.361365   6.189596
    34  H    4.445569   5.032640   3.458314   2.819900   6.994976
    35  H    4.645336   4.773022   4.420297   2.504853   6.139863
    36  H    4.150747   4.635550   4.552864   3.248788   6.622410
                   11         12         13         14         15
    11  H    0.000000
    12  H    1.791871   0.000000
    13  H    3.061907   2.572080   0.000000
    14  H    3.241341   2.456790   2.545749   0.000000
    15  H    4.894111   4.345698   2.684552   2.391841   0.000000
    16  H    5.497126   5.852607   4.025254   4.278597   2.808621
    17  H    4.363721   5.319707   3.734316   4.822661   4.264519
    18  O    5.180390   5.211608   2.789808   4.160223   2.478646
    19  C    2.607085   2.706858   3.877393   5.019099   6.411168
    20  H    3.601757   3.670089   4.400900   5.901797   7.048605
    21  H    2.979803   2.534178   4.239381   4.978255   6.608777
    22  H    2.418225   3.130704   4.461917   5.360454   6.875917
    23  C    6.562810   6.434437   3.992879   5.090702   2.917363
    24  H    7.147232   7.223945   4.852116   5.797484   3.660440
    25  H    6.793319   6.441214   4.160675   4.798202   2.433174
    26  H    7.047908   6.831364   4.286061   5.755962   3.661378
    27  C    5.845765   5.443917   4.812184   3.002201   2.599642
    28  H    5.352668   4.878994   4.788830   2.538107   3.066022
    29  H    6.292996   5.625240   4.784878   3.197406   2.342392
    30  H    6.738183   6.458144   5.847943   4.044664   3.558926
    31  C    3.411709   4.282861   4.123899   3.236040   3.976697
    32  O    3.800361   4.804880   4.029144   3.881365   3.989026
    33  C    4.344701   5.320208   5.559681   4.332547   5.252849
    34  H    5.225566   5.967708   6.051768   4.565030   5.236508
    35  H    4.139330   5.066939   5.813741   4.356253   5.727599
    36  H    4.813170   6.036943   6.155393   5.262581   6.009681
                   16         17         18         19         20
    16  H    0.000000
    17  H    2.514165   0.000000
    18  O    2.099052   2.725972   0.000000
    19  C    7.344354   5.927808   6.342940   0.000000
    20  H    7.917763   6.368411   6.709412   1.094925   0.000000
    21  H    7.886120   6.728775   6.909623   1.103658   1.793129
    22  H    7.498731   5.882269   6.749149   1.103583   1.793863
    23  C    2.533266   3.877757   1.439432   7.679767   8.001718
    24  H    2.370098   3.859003   2.099227   8.430167   8.764207
    25  H    2.815333   4.610222   2.112279   8.007639   8.410184
    26  H    3.561750   4.478799   2.033234   7.814849   7.996027
    27  C    3.751123   5.598915   4.674833   7.928685   8.781436
    28  H    4.440568   5.909661   5.236386   7.473019   8.398161
    29  H    4.096564   6.054604   4.623404   8.115781   8.901076
    30  H    4.176074   6.189491   5.420367   8.931579   9.801835
    31  C    3.374514   3.278824   4.445677   5.940226   6.826293
    32  O    2.611422   2.108698   3.734065   6.088357   6.830603
    33  C    4.497798   4.454060   5.850969   6.938493   7.879323
    34  H    4.476415   4.986979   6.066916   7.827188   8.777956
    35  H    5.400095   5.237569   6.553351   6.705993   7.710209
    36  H    4.796309   4.398997   6.224127   7.321144   8.198524
                   21         22         23         24         25
    21  H    0.000000
    22  H    1.799941   0.000000
    23  C    8.191975   8.147558   0.000000
    24  H    9.008276   8.796515   1.101351   0.000000
    25  H    8.387839   8.522129   1.102369   1.798973   0.000000
    26  H    8.345484   8.373942   1.094423   1.795674   1.791105
    27  C    7.969701   8.169399   4.924805   5.252316   4.265580
    28  H    7.407098   7.670305   5.703501   6.117974   5.108254
    29  H    8.105177   8.495284   4.669722   5.129694   3.834830
    30  H    8.986856   9.108586   5.516958   5.663888   4.837156
    31  C    6.331928   5.720935   5.518135   5.675360   5.628424
    32  O    6.663708   5.894701   4.818547   4.840185   5.142937
    33  C    7.264928   6.550160   6.829151   6.864251   6.887616
    34  H    8.095369   7.520064   6.854198   6.819734   6.783151
    35  H    6.908096   6.257373   7.599737   7.743484   7.605254
    36  H    7.765592   6.821324   7.213521   7.124979   7.406095
                   26         27         28         29         30
    26  H    0.000000
    27  C    5.874434   0.000000
    28  H    6.609687   1.102206   0.000000
    29  H    5.509873   1.101883   1.801419   0.000000
    30  H    6.515652   1.094849   1.789246   1.791325   0.000000
    31  C    6.420024   3.814031   3.634024   4.684931   4.310217
    32  O    5.689695   4.348543   4.448160   5.106882   4.827117
    33  C    7.783378   4.443515   4.135476   5.466627   4.652275
    34  H    7.876416   3.941534   3.724007   5.026645   3.917159
    35  H    8.517928   4.831737   4.280003   5.830810   5.096462
    36  H    8.148544   5.368007   5.167325   6.386121   5.510900
                   31         32         33         34         35
    31  C    0.000000
    32  O    1.272824   0.000000
    33  C    1.483577   2.372778   0.000000
    34  H    2.097065   2.906406   1.101183   0.000000
    35  H    2.129434   3.218741   1.095417   1.775215   0.000000
    36  H    2.130658   2.517777   1.093426   1.783984   1.809673
                   36
    36  H    0.000000
 Stoichiometry    C11H19O6(1+)
 Framework group  C1[X(C11H19O6)]
 Deg. of freedom   102
 Full point group                 C1      NOp   1
 Largest Abelian subgroup         C1      NOp   1
 Largest concise Abelian subgroup C1      NOp   1
                         Standard orientation:                         
 ---------------------------------------------------------------------
 Center     Atomic      Atomic             Coordinates (Angstroms)
 Number     Number       Type             X           Y           Z
 ---------------------------------------------------------------------
      1          6           0        2.563750   -0.239765    0.668406
      2          6           0        1.210627    0.408644    0.421089
      3          6           0        0.020726   -0.346945    0.987129
      4          6           0       -1.313816    0.415036    0.761353
      5          6           0       -1.291133    1.137465   -0.612998
      6          6           0       -0.198202    0.543757   -1.492830
      7          8           0        1.053996    0.554962   -1.033772
      8          8           0       -2.447069   -0.423996    0.796329
      9          8           0       -0.068808   -1.714291    0.400271
     10          8           0        3.544452    0.716294    0.349839
     11          1           0        2.666489   -1.153693    0.049320
     12          1           0        2.620571   -0.545871    1.734326
     13          1           0        1.222839    1.424586    0.851582
     14          1           0        0.184164   -0.567196    2.049413
     15          1           0       -1.358670    1.191033    1.550212
     16          1           0       -2.270214    0.975147   -1.097586
     17          1           0       -0.218171    0.844722   -2.544352
     18          8           0       -0.957524    2.505134   -0.512773
     19          6           0        4.871835    0.185992    0.421592
     20          1           0        5.547863    1.004842    0.154514
     21          1           0        5.108661   -0.164558    1.440949
     22          1           0        5.006419   -0.646511   -0.290251
     23          6           0       -2.088421    3.359117   -0.260280
     24          1           0       -2.826595    3.278891   -1.073690
     25          1           0       -2.573605    3.120273    0.700327
     26          1           0       -1.691946    4.378421   -0.220431
     27          6           0       -2.798953   -0.900080    2.107860
     28          1           0       -2.074441   -1.639515    2.486247
     29          1           0       -2.877902   -0.061845    2.818688
     30          1           0       -3.777856   -1.379404    2.004461
     31          6           0       -0.549289   -1.912371   -0.800939
     32          8           0       -0.704414   -1.025792   -1.700936
     33          6           0       -0.918688   -3.314760   -1.113746
     34          1           0       -1.945783   -3.476013   -0.750874
     35          1           0       -0.261566   -4.010799   -0.581150
     36          1           0       -0.895938   -3.487540   -2.193195
 ---------------------------------------------------------------------
 Rotational constants (GHZ):      0.5712081      0.3774191      0.2981509
 Leave Link  202 at Tue Oct 24 12:45:25 2017, MaxMem= 13421772800 cpu:         0.6
 (Enter /share/apps//g09/l301.exe)
 Standard basis: 6-311+G(d,p) (5D, 7F)
 Ernie: Thresh=  0.10000D-02 Tol=  0.10000D-05 Strict=F.
 There are   505 symmetry adapted cartesian basis functions of A   symmetry.
 There are   488 symmetry adapted basis functions of A   symmetry.
   488 basis functions,   764 primitive gaussians,   505 cartesian basis functions
    66 alpha electrons       66 beta electrons
       nuclear repulsion energy      1429.4098296964 Hartrees.
 IExCor= 1009 DFT=T Ex+Corr=PBE1PBE ExCW=0 ScaHFX=  0.250000
 ScaDFX=  0.750000  0.750000  1.000000  1.000000 ScalE2=  1.000000  1.000000
 IRadAn=      0 IRanWt=     -1 IRanGd=            0 ICorTp=0 IEmpDi=131
 NAtoms=   36 NActive=   36 NUniq=   36 SFac= 1.00D+00 NAtFMM=   60 NAOKFM=F Big=F
 Integral buffers will be    131072 words long.
 Raffenetti 2 integral format.
 Two-electron integral symmetry is turned on.
 R6Disp:  Grimme-D3 Dispersion energy=       -0.0242165806 Hartrees.
 Nuclear repulsion after empirical dispersion term =     1429.3856131158 Hartrees.
 Leave Link  301 at Tue Oct 24 12:45:25 2017, MaxMem= 13421772800 cpu:         1.8
 (Enter /share/apps//g09/l302.exe)
 NPDir=0 NMtPBC=     1 NCelOv=     1 NCel=       1 NClECP=     1 NCelD=      1
         NCelK=      1 NCelE2=     1 NClLst=     1 CellRange=     0.0.
 One-electron integrals computed using PRISM.
 NBasis=   488 RedAO= T EigKep=  1.71D-06  NBF=   488
 NBsUse=   488 1.00D-06 EigRej= -1.00D+00 NBFU=   488
 Precomputing XC quadrature grid using
 IXCGrd= 4 IRadAn=           0 IRanWt=          -1 IRanGd=           0 AccXCQ= 0.00D+00.
 Generated NRdTot=       0 NPtTot=           0 NUsed=           0 NTot=          32
 NSgBfM=   503   504   504   504   504 MxSgAt=    36 MxSgA2=    36.
 Leave Link  302 at Tue Oct 24 12:45:26 2017, MaxMem= 13421772800 cpu:        12.4
 (Enter /share/apps//g09/l303.exe)
 DipDrv:  MaxL=1.
 Leave Link  303 at Tue Oct 24 12:45:27 2017, MaxMem= 13421772800 cpu:         6.2
 (Enter /share/apps//g09/l401.exe)
 ExpMin= 4.38D-02 ExpMax= 8.59D+03 ExpMxC= 1.30D+03 IAcc=2 IRadAn=         4 AccDes= 0.00D+00
 Harris functional with IExCor= 1009 and IRadAn=       4 diagonalized for initial guess.
 HarFok:  IExCor= 1009 AccDes= 0.00D+00 IRadAn=         4 IDoV= 1 UseB2=F ITyADJ=14
 ICtDFT=  3500011 ScaDFX=  1.000000  1.000000  1.000000  1.000000
 FoFCou: FMM=F IPFlag=           0 FMFlag=      100000 FMFlg1=           0
         NFxFlg=           0 DoJE=T BraDBF=F KetDBF=T FulRan=T
         wScrn=  0.000000 ICntrl=     500 IOpCl=  0 I1Cent=   200000004 NGrid=           0
         NMat0=    1 NMatS0=      1 NMatT0=    0 NMatD0=    1 NMtDS0=    0 NMtDT0=    0
 Petite list used in FoFCou.
 Harris En= -881.102946546739    
 JPrj=0 DoOrth=F DoCkMO=F.
 Leave Link  401 at Tue Oct 24 12:45:29 2017, MaxMem= 13421772800 cpu:        24.3
 (Enter /share/apps//g09/l502.exe)
 Closed shell SCF:
 Using DIIS extrapolation, IDIIS=  1040.
 Integral symmetry usage will be decided dynamically.
 Keep R1 ints in memory in canonical form, NReq=7183787934.
 IVT=      797493 IEndB=      797493 NGot= 13421772800 MDV=  6302761722
 LenX=  6302761722 LenY=  6302506192
 Requested convergence on RMS density matrix=1.00D-08 within 128 cycles.
 Requested convergence on MAX density matrix=1.00D-06.
 Requested convergence on             energy=1.00D-06.
 No special actions if energy rises.
 FoFCou: FMM=F IPFlag=           0 FMFlag=           0 FMFlg1=           0
         NFxFlg=           0 DoJE=F BraDBF=F KetDBF=F FulRan=T
         wScrn=  0.000000 ICntrl=     600 IOpCl=  0 I1Cent=           0 NGrid=           0
         NMat0=    1 NMatS0= 119316 NMatT0=    0 NMatD0=    1 NMtDS0=    0 NMtDT0=    0
 Symmetry not used in FoFCou.

 Cycle   1  Pass 1  IDiag  1:
 E= -880.646642066190    
 DIIS: error= 1.59D-02 at cycle   1 NSaved=   1.
 NSaved= 1 IEnMin= 1 EnMin= -880.646642066190     IErMin= 1 ErrMin= 1.59D-02
 ErrMax= 1.59D-02  0.00D+00 EMaxC= 1.00D-01 BMatC= 3.72D-01 BMatP= 3.72D-01
 IDIUse=3 WtCom= 8.41D-01 WtEn= 1.59D-01
 Coeff-Com:  0.100D+01
 Coeff-En:   0.100D+01
 Coeff:      0.100D+01
 Gap=     0.117 Goal=   None    Shift=    0.000
 GapD=    0.117 DampG=1.000 DampE=0.500 DampFc=0.5000 IDamp=-1.
 Damping current iteration by 5.00D-01
 RMSDP=1.65D-02 MaxDP=1.97D+00              OVMax= 1.34D-01

 Cycle   2  Pass 1  IDiag  1:
 E= -880.771434813717     Delta-E=       -0.124792747527 Rises=F Damp=T
 DIIS: error= 3.60D-03 at cycle   2 NSaved=   2.
 NSaved= 2 IEnMin= 2 EnMin= -880.771434813717     IErMin= 2 ErrMin= 3.60D-03
 ErrMax= 3.60D-03  0.00D+00 EMaxC= 1.00D-01 BMatC= 2.95D-02 BMatP= 3.72D-01
 IDIUse=3 WtCom= 9.64D-01 WtEn= 3.60D-02
 Coeff-Com: -0.473D-02 0.100D+01
 Coeff-En:   0.557D-01 0.944D+00
 Coeff:     -0.255D-02 0.100D+01
 Gap=     0.223 Goal=   None    Shift=    0.000
 RMSDP=7.45D-03 MaxDP=1.17D+00 DE=-1.25D-01 OVMax= 9.53D-02

 Cycle   3  Pass 1  IDiag  1:
 E= -880.906140287429     Delta-E=       -0.134705473711 Rises=F Damp=F
 DIIS: error= 4.88D-03 at cycle   3 NSaved=   3.
 NSaved= 3 IEnMin= 3 EnMin= -880.906140287429     IErMin= 2 ErrMin= 3.60D-03
 ErrMax= 4.88D-03  0.00D+00 EMaxC= 1.00D-01 BMatC= 2.18D-02 BMatP= 2.95D-02
 IDIUse=3 WtCom= 9.51D-01 WtEn= 4.88D-02
 Coeff-Com: -0.900D-01 0.484D+00 0.606D+00
 Coeff-En:   0.000D+00 0.000D+00 0.100D+01
 Coeff:     -0.856D-01 0.460D+00 0.626D+00
 Gap=     0.186 Goal=   None    Shift=    0.000
 RMSDP=1.65D-03 MaxDP=2.20D-01 DE=-1.35D-01 OVMax= 2.15D-02

 Cycle   4  Pass 1  IDiag  1:
 E= -880.919452172398     Delta-E=       -0.013311884969 Rises=F Damp=F
 DIIS: error= 2.47D-03 at cycle   4 NSaved=   4.
 NSaved= 4 IEnMin= 4 EnMin= -880.919452172398     IErMin= 4 ErrMin= 2.47D-03
 ErrMax= 2.47D-03  0.00D+00 EMaxC= 1.00D-01 BMatC= 4.11D-03 BMatP= 2.18D-02
 IDIUse=3 WtCom= 9.75D-01 WtEn= 2.47D-02
 Coeff-Com: -0.463D-01 0.151D+00 0.352D+00 0.543D+00
 Coeff-En:   0.000D+00 0.000D+00 0.132D+00 0.868D+00
 Coeff:     -0.451D-01 0.147D+00 0.347D+00 0.551D+00
 Gap=     0.190 Goal=   None    Shift=    0.000
 RMSDP=1.14D-03 MaxDP=2.21D-01 DE=-1.33D-02 OVMax= 6.74D-03

 Cycle   5  Pass 1  IDiag  1:
 E= -880.922444208967     Delta-E=       -0.002992036569 Rises=F Damp=F
 DIIS: error= 5.60D-04 at cycle   5 NSaved=   5.
 NSaved= 5 IEnMin= 5 EnMin= -880.922444208967     IErMin= 5 ErrMin= 5.60D-04
 ErrMax= 5.60D-04  0.00D+00 EMaxC= 1.00D-01 BMatC= 1.62D-04 BMatP= 4.11D-03
 IDIUse=3 WtCom= 9.94D-01 WtEn= 5.60D-03
 Coeff-Com: -0.150D-01 0.365D-01 0.119D+00 0.253D+00 0.607D+00
 Coeff-En:   0.000D+00 0.000D+00 0.000D+00 0.000D+00 0.100D+01
 Coeff:     -0.150D-01 0.363D-01 0.118D+00 0.252D+00 0.609D+00
 Gap=     0.192 Goal=   None    Shift=    0.000
 RMSDP=1.52D-04 MaxDP=1.56D-02 DE=-2.99D-03 OVMax= 2.93D-03

 Cycle   6  Pass 1  IDiag  1:
 E= -880.922537817806     Delta-E=       -0.000093608840 Rises=F Damp=F
 DIIS: error= 3.62D-04 at cycle   6 NSaved=   6.
 NSaved= 6 IEnMin= 6 EnMin= -880.922537817806     IErMin= 6 ErrMin= 3.62D-04
 ErrMax= 3.62D-04  0.00D+00 EMaxC= 1.00D-01 BMatC= 4.20D-05 BMatP= 1.62D-04
 IDIUse=3 WtCom= 9.96D-01 WtEn= 3.62D-03
 Coeff-Com: -0.600D-02 0.109D-01 0.479D-01 0.120D+00 0.399D+00 0.428D+00
 Coeff-En:   0.000D+00 0.000D+00 0.000D+00 0.000D+00 0.180D+00 0.820D+00
 Coeff:     -0.598D-02 0.109D-01 0.477D-01 0.119D+00 0.398D+00 0.430D+00
 Gap=     0.192 Goal=   None    Shift=    0.000
 RMSDP=7.33D-05 MaxDP=1.26D-02 DE=-9.36D-05 OVMax= 1.22D-03

 Cycle   7  Pass 1  IDiag  1:
 E= -880.922567402687     Delta-E=       -0.000029584881 Rises=F Damp=F
 DIIS: error= 4.96D-05 at cycle   7 NSaved=   7.
 NSaved= 7 IEnMin= 7 EnMin= -880.922567402687     IErMin= 7 ErrMin= 4.96D-05
 ErrMax= 4.96D-05  0.00D+00 EMaxC= 1.00D-01 BMatC= 1.68D-06 BMatP= 4.20D-05
 IDIUse=1 WtCom= 1.00D+00 WtEn= 0.00D+00
 Coeff-Com: -0.218D-02 0.335D-02 0.174D-01 0.477D-01 0.181D+00 0.235D+00
 Coeff-Com:  0.518D+00
 Coeff:     -0.218D-02 0.335D-02 0.174D-01 0.477D-01 0.181D+00 0.235D+00
 Coeff:      0.518D+00
 Gap=     0.192 Goal=   None    Shift=    0.000
 RMSDP=2.18D-05 MaxDP=3.04D-03 DE=-2.96D-05 OVMax= 2.28D-04

 Cycle   8  Pass 1  IDiag  1:
 E= -880.922568589991     Delta-E=       -0.000001187303 Rises=F Damp=F
 DIIS: error= 1.18D-05 at cycle   8 NSaved=   8.
 NSaved= 8 IEnMin= 8 EnMin= -880.922568589991     IErMin= 8 ErrMin= 1.18D-05
 ErrMax= 1.18D-05  0.00D+00 EMaxC= 1.00D-01 BMatC= 1.78D-07 BMatP= 1.68D-06
 IDIUse=1 WtCom= 1.00D+00 WtEn= 0.00D+00
 Coeff-Com: -0.127D-03-0.549D-04 0.900D-03 0.493D-02 0.274D-01 0.462D-01
 Coeff-Com:  0.265D+00 0.656D+00
 Coeff:     -0.127D-03-0.549D-04 0.900D-03 0.493D-02 0.274D-01 0.462D-01
 Coeff:      0.265D+00 0.656D+00
 Gap=     0.192 Goal=   None    Shift=    0.000
 RMSDP=8.70D-06 MaxDP=1.38D-03 DE=-1.19D-06 OVMax= 8.66D-05

 Cycle   9  Pass 1  IDiag  1:
 E= -880.922568698385     Delta-E=       -0.000000108394 Rises=F Damp=F
 DIIS: error= 6.83D-06 at cycle   9 NSaved=   9.
 NSaved= 9 IEnMin= 9 EnMin= -880.922568698385     IErMin= 9 ErrMin= 6.83D-06
 ErrMax= 6.83D-06  0.00D+00 EMaxC= 1.00D-01 BMatC= 3.40D-08 BMatP= 1.78D-07
 IDIUse=1 WtCom= 1.00D+00 WtEn= 0.00D+00
 Coeff-Com:  0.756D-04-0.254D-03-0.801D-03-0.812D-03 0.742D-03 0.562D-02
 Coeff-Com:  0.103D+00 0.383D+00 0.509D+00
 Coeff:      0.756D-04-0.254D-03-0.801D-03-0.812D-03 0.742D-03 0.562D-02
 Coeff:      0.103D+00 0.383D+00 0.509D+00
 Gap=     0.192 Goal=   None    Shift=    0.000
 RMSDP=3.29D-06 MaxDP=4.84D-04 DE=-1.08D-07 OVMax= 3.33D-05

 Cycle  10  Pass 1  IDiag  1:
 E= -880.922568723394     Delta-E=       -0.000000025009 Rises=F Damp=F
 DIIS: error= 1.12D-06 at cycle  10 NSaved=  10.
 NSaved=10 IEnMin=10 EnMin= -880.922568723394     IErMin=10 ErrMin= 1.12D-06
 ErrMax= 1.12D-06  0.00D+00 EMaxC= 1.00D-01 BMatC= 9.45D-10 BMatP= 3.40D-08
 IDIUse=1 WtCom= 1.00D+00 WtEn= 0.00D+00
 Coeff-Com:  0.461D-04-0.101D-03-0.475D-03-0.904D-03-0.285D-02-0.278D-02
 Coeff-Com:  0.160D-01 0.905D-01 0.191D+00 0.710D+00
 Coeff:      0.461D-04-0.101D-03-0.475D-03-0.904D-03-0.285D-02-0.278D-02
 Coeff:      0.160D-01 0.905D-01 0.191D+00 0.710D+00
 Gap=     0.192 Goal=   None    Shift=    0.000
 RMSDP=7.95D-07 MaxDP=9.80D-05 DE=-2.50D-08 OVMax= 4.66D-06

 Cycle  11  Pass 1  IDiag  1:
 E= -880.922568724159     Delta-E=       -0.000000000765 Rises=F Damp=F
 DIIS: error= 3.47D-07 at cycle  11 NSaved=  11.
 NSaved=11 IEnMin=11 EnMin= -880.922568724159     IErMin=11 ErrMin= 3.47D-07
 ErrMax= 3.47D-07  0.00D+00 EMaxC= 1.00D-01 BMatC= 6.92D-11 BMatP= 9.45D-10
 IDIUse=1 WtCom= 1.00D+00 WtEn= 0.00D+00
 Coeff-Com:  0.149D-04-0.299D-04-0.163D-03-0.335D-03-0.120D-02-0.138D-02
 Coeff-Com:  0.206D-02 0.196D-01 0.529D-01 0.296D+00 0.633D+00
 Coeff:      0.149D-04-0.299D-04-0.163D-03-0.335D-03-0.120D-02-0.138D-02
 Coeff:      0.206D-02 0.196D-01 0.529D-01 0.296D+00 0.633D+00
 Gap=     0.192 Goal=   None    Shift=    0.000
 RMSDP=9.79D-08 MaxDP=9.05D-06 DE=-7.65D-10 OVMax= 1.25D-06

 Cycle  12  Pass 1  IDiag  1:
 E= -880.922568724185     Delta-E=       -0.000000000026 Rises=F Damp=F
 DIIS: error= 1.30D-07 at cycle  12 NSaved=  12.
 NSaved=12 IEnMin=12 EnMin= -880.922568724185     IErMin=12 ErrMin= 1.30D-07
 ErrMax= 1.30D-07  0.00D+00 EMaxC= 1.00D-01 BMatC= 1.05D-11 BMatP= 6.92D-11
 IDIUse=1 WtCom= 1.00D+00 WtEn= 0.00D+00
 Coeff-Com:  0.761D-06-0.393D-06-0.168D-04-0.421D-04-0.193D-03-0.291D-03
 Coeff-Com: -0.103D-02-0.251D-02 0.728D-03 0.526D-01 0.312D+00 0.638D+00
 Coeff:      0.761D-06-0.393D-06-0.168D-04-0.421D-04-0.193D-03-0.291D-03
 Coeff:     -0.103D-02-0.251D-02 0.728D-03 0.526D-01 0.312D+00 0.638D+00
 Gap=     0.192 Goal=   None    Shift=    0.000
 RMSDP=6.92D-08 MaxDP=9.85D-06 DE=-2.59D-11 OVMax= 6.40D-07

 Cycle  13  Pass 1  IDiag  1:
 E= -880.922568724189     Delta-E=       -0.000000000004 Rises=F Damp=F
 DIIS: error= 2.94D-08 at cycle  13 NSaved=  13.
 NSaved=13 IEnMin=13 EnMin= -880.922568724189     IErMin=13 ErrMin= 2.94D-08
 ErrMax= 2.94D-08  0.00D+00 EMaxC= 1.00D-01 BMatC= 5.91D-13 BMatP= 1.05D-11
 IDIUse=1 WtCom= 1.00D+00 WtEn= 0.00D+00
 Coeff-Com: -0.407D-06 0.131D-05 0.941D-06-0.116D-05-0.175D-04-0.486D-04
 Coeff-Com: -0.518D-03-0.213D-02-0.221D-02 0.522D-02 0.961D-01 0.276D+00
 Coeff-Com:  0.628D+00
 Coeff:     -0.407D-06 0.131D-05 0.941D-06-0.116D-05-0.175D-04-0.486D-04
 Coeff:     -0.518D-03-0.213D-02-0.221D-02 0.522D-02 0.961D-01 0.276D+00
 Coeff:      0.628D+00
 Gap=     0.192 Goal=   None    Shift=    0.000
 RMSDP=1.99D-08 MaxDP=3.27D-06 DE=-4.09D-12 OVMax= 1.17D-07

 Cycle  14  Pass 1  IDiag  1:
 E= -880.922568724223     Delta-E=       -0.000000000035 Rises=F Damp=F
 DIIS: error= 1.03D-08 at cycle  14 NSaved=  14.
 NSaved=14 IEnMin=14 EnMin= -880.922568724223     IErMin=14 ErrMin= 1.03D-08
 ErrMax= 1.03D-08  0.00D+00 EMaxC= 1.00D-01 BMatC= 1.11D-13 BMatP= 5.91D-13
 IDIUse=1 WtCom= 1.00D+00 WtEn= 0.00D+00
 Coeff-Com: -0.288D-06 0.717D-06 0.229D-05 0.368D-05 0.117D-04 0.603D-05
 Coeff-Com: -0.170D-03-0.899D-03-0.125D-02-0.366D-02 0.154D-01 0.757D-01
 Coeff-Com:  0.343D+00 0.572D+00
 Coeff:     -0.288D-06 0.717D-06 0.229D-05 0.368D-05 0.117D-04 0.603D-05
 Coeff:     -0.170D-03-0.899D-03-0.125D-02-0.366D-02 0.154D-01 0.757D-01
 Coeff:      0.343D+00 0.572D+00
 Gap=     0.192 Goal=   None    Shift=    0.000
 RMSDP=1.17D-08 MaxDP=2.17D-06 DE=-3.46D-11 OVMax= 5.47D-08

 Cycle  15  Pass 1  IDiag  1:
 E= -880.922568724206     Delta-E=        0.000000000017 Rises=F Damp=F
 DIIS: error= 1.84D-09 at cycle  15 NSaved=  15.
 NSaved=15 IEnMin=14 EnMin= -880.922568724223     IErMin=15 ErrMin= 1.84D-09
 ErrMax= 1.84D-09  0.00D+00 EMaxC= 1.00D-01 BMatC= 4.28D-15 BMatP= 1.11D-13
 IDIUse=1 WtCom= 1.00D+00 WtEn= 0.00D+00
 Coeff-Com: -0.801D-07 0.183D-06 0.851D-06 0.153D-05 0.604D-05 0.627D-05
 Coeff-Com: -0.275D-04-0.187D-03-0.296D-03-0.188D-02-0.142D-02 0.792D-02
 Coeff-Com:  0.853D-01 0.229D+00 0.682D+00
 Coeff:     -0.801D-07 0.183D-06 0.851D-06 0.153D-05 0.604D-05 0.627D-05
 Coeff:     -0.275D-04-0.187D-03-0.296D-03-0.188D-02-0.142D-02 0.792D-02
 Coeff:      0.853D-01 0.229D+00 0.682D+00
 Gap=     0.192 Goal=   None    Shift=    0.000
 RMSDP=8.52D-09 MaxDP=1.44D-06 DE= 1.68D-11 OVMax= 1.45D-08

 Cycle  16  Pass 1  IDiag  1:
 E= -880.922568724231     Delta-E=       -0.000000000025 Rises=F Damp=F
 DIIS: error= 5.38D-10 at cycle  16 NSaved=  16.
 NSaved=16 IEnMin=16 EnMin= -880.922568724231     IErMin=16 ErrMin= 5.38D-10
 ErrMax= 5.38D-10  0.00D+00 EMaxC= 1.00D-01 BMatC= 4.25D-16 BMatP= 4.28D-15
 IDIUse=1 WtCom= 1.00D+00 WtEn= 0.00D+00
 Large coefficients: NSaved= 16 BigCof=    0.00 CofMax=   10.00 Det=-3.58D-15
 Inversion failed.  Reducing to 15 matrices.
 Coeff-Com: -0.787D-09 0.950D-07 0.161D-06 0.103D-05 0.161D-05 0.158D-05
 Coeff-Com: -0.640D-05-0.136D-04-0.494D-03-0.169D-02-0.212D-02 0.137D-01
 Coeff-Com:  0.601D-01 0.301D+00 0.630D+00
 Coeff:     -0.787D-09 0.950D-07 0.161D-06 0.103D-05 0.161D-05 0.158D-05
 Coeff:     -0.640D-05-0.136D-04-0.494D-03-0.169D-02-0.212D-02 0.137D-01
 Coeff:      0.601D-01 0.301D+00 0.630D+00
 Gap=     0.192 Goal=   None    Shift=    0.000
 RMSDP=6.69D-09 MaxDP=8.18D-07 DE=-2.50D-11 OVMax= 4.29D-09

 SCF Done:  E(RPBE1PBE) =  -880.922568724     A.U. after   16 cycles
            NFock= 16  Conv=0.67D-08     -V/T= 2.0043
 KE= 8.771312248288D+02 PE=-4.901520839596D+03 EE= 1.714081432927D+03
 Leave Link  502 at Tue Oct 24 12:49:08 2017, MaxMem= 13421772800 cpu:      1000.0
 (Enter /share/apps//g09/l601.exe)
 Copying SCF densities to generalized density rwf, IOpCl= 0 IROHF=0.

 **********************************************************************

            Population analysis using the SCF density.

 **********************************************************************

 Orbital symmetries:
       Occupied  (A) (A) (A) (A) (A) (A) (A) (A) (A) (A) (A) (A)
                 (A) (A) (A) (A) (A) (A) (A) (A) (A) (A) (A) (A)
                 (A) (A) (A) (A) (A) (A) (A) (A) (A) (A) (A) (A)
                 (A) (A) (A) (A) (A) (A) (A) (A) (A) (A) (A) (A)
                 (A) (A) (A) (A) (A) (A) (A) (A) (A) (A) (A) (A)
                 (A) (A) (A) (A) (A) (A)
       Virtual   (A) (A) (A) (A) (A) (A) (A) (A) (A) (A) (A) (A)
                 (A) (A) (A) (A) (A) (A) (A) (A) (A) (A) (A) (A)
                 (A) (A) (A) (A) (A) (A) (A) (A) (A) (A) (A) (A)
                 (A) (A) (A) (A) (A) (A) (A) (A) (A) (A) (A) (A)
                 (A) (A) (A) (A) (A) (A) (A) (A) (A) (A) (A) (A)
                 (A) (A) (A) (A) (A) (A) (A) (A) (A) (A) (A) (A)
                 (A) (A) (A) (A) (A) (A) (A) (A) (A) (A) (A) (A)
                 (A) (A) (A) (A) (A) (A) (A) (A) (A) (A) (A) (A)
                 (A) (A) (A) (A) (A) (A) (A) (A) (A) (A) (A) (A)
                 (A) (A) (A) (A) (A) (A) (A) (A) (A) (A) (A) (A)
                 (A) (A) (A) (A) (A) (A) (A) (A) (A) (A) (A) (A)
                 (A) (A) (A) (A) (A) (A) (A) (A) (A) (A) (A) (A)
                 (A) (A) (A) (A) (A) (A) (A) (A) (A) (A) (A) (A)
                 (A) (A) (A) (A) (A) (A) (A) (A) (A) (A) (A) (A)
                 (A) (A) (A) (A) (A) (A) (A) (A) (A) (A) (A) (A)
                 (A) (A) (A) (A) (A) (A) (A) (A) (A) (A) (A) (A)
                 (A) (A) (A) (A) (A) (A) (A) (A) (A) (A) (A) (A)
                 (A) (A) (A) (A) (A) (A) (A) (A) (A) (A) (A) (A)
                 (A) (A) (A) (A) (A) (A) (A) (A) (A) (A) (A) (A)
                 (A) (A) (A) (A) (A) (A) (A) (A) (A) (A) (A) (A)
                 (A) (A) (A) (A) (A) (A) (A) (A) (A) (A) (A) (A)
                 (A) (A) (A) (A) (A) (A) (A) (A) (A) (A) (A) (A)
                 (A) (A) (A) (A) (A) (A) (A) (A) (A) (A) (A) (A)
                 (A) (A) (A) (A) (A) (A) (A) (A) (A) (A) (A) (A)
                 (A) (A) (A) (A) (A) (A) (A) (A) (A) (A) (A) (A)
                 (A) (A) (A) (A) (A) (A) (A) (A) (A) (A) (A) (A)
                 (A) (A) (A) (A) (A) (A) (A) (A) (A) (A) (A) (A)
                 (A) (A) (A) (A) (A) (A) (A) (A) (A) (A) (A) (A)
                 (A) (A) (A) (A) (A) (A) (A) (A) (A) (A) (A) (A)
                 (A) (A) (A) (A) (A) (A) (A) (A) (A) (A) (A) (A)
                 (A) (A) (A) (A) (A) (A) (A) (A) (A) (A) (A) (A)
                 (A) (A) (A) (A) (A) (A) (A) (A) (A) (A) (A) (A)
                 (A) (A) (A) (A) (A) (A) (A) (A) (A) (A) (A) (A)
                 (A) (A) (A) (A) (A) (A) (A) (A) (A) (A) (A) (A)
                 (A) (A) (A) (A) (A) (A) (A) (A) (A) (A) (A) (A)
                 (A) (A)
 The electronic state is 1-A.
 Alpha  occ. eigenvalues --  -19.45253 -19.43757 -19.40719 -19.36919 -19.35835
 Alpha  occ. eigenvalues --  -19.32728 -10.57086 -10.51328 -10.47208 -10.44904
 Alpha  occ. eigenvalues --  -10.44897 -10.44291 -10.40890 -10.40048 -10.39005
 Alpha  occ. eigenvalues --  -10.38915 -10.36419  -1.34984  -1.28089  -1.26069
 Alpha  occ. eigenvalues --   -1.22528  -1.21014  -1.18470  -1.01332  -0.97956
 Alpha  occ. eigenvalues --   -0.94890  -0.89441  -0.87942  -0.85260  -0.82352
 Alpha  occ. eigenvalues --   -0.81165  -0.78497  -0.76994  -0.76335  -0.72483
 Alpha  occ. eigenvalues --   -0.71096  -0.68077  -0.67437  -0.66834  -0.66023
 Alpha  occ. eigenvalues --   -0.64017  -0.63449  -0.62771  -0.61485  -0.61094
 Alpha  occ. eigenvalues --   -0.60209  -0.59459  -0.58553  -0.58061  -0.57636
 Alpha  occ. eigenvalues --   -0.57088  -0.56076  -0.55292  -0.54464  -0.54218
 Alpha  occ. eigenvalues --   -0.52832  -0.52039  -0.51472  -0.49251  -0.48849
 Alpha  occ. eigenvalues --   -0.47753  -0.47028  -0.45378  -0.43663  -0.41840
 Alpha  occ. eigenvalues --   -0.39173
 Alpha virt. eigenvalues --   -0.20008  -0.13027  -0.12268  -0.10207  -0.09227
 Alpha virt. eigenvalues --   -0.08976  -0.08065  -0.07495  -0.06936  -0.06540
 Alpha virt. eigenvalues --   -0.06430  -0.06263  -0.05086  -0.04760  -0.04382
 Alpha virt. eigenvalues --   -0.04100  -0.03693  -0.03030  -0.02857  -0.02701
 Alpha virt. eigenvalues --   -0.02434  -0.01911  -0.01460  -0.00922  -0.00696
 Alpha virt. eigenvalues --   -0.00480   0.00133   0.00592   0.00948   0.01501
 Alpha virt. eigenvalues --    0.01716   0.01971   0.02658   0.02852   0.03607
 Alpha virt. eigenvalues --    0.03874   0.04282   0.04338   0.04748   0.05282
 Alpha virt. eigenvalues --    0.05658   0.05811   0.05913   0.06459   0.06891
 Alpha virt. eigenvalues --    0.07676   0.07749   0.08332   0.08827   0.08885
 Alpha virt. eigenvalues --    0.09183   0.09686   0.09879   0.10784   0.11194
 Alpha virt. eigenvalues --    0.11416   0.11816   0.11967   0.12182   0.12285
 Alpha virt. eigenvalues --    0.12546   0.13461   0.13755   0.13993   0.14645
 Alpha virt. eigenvalues --    0.14948   0.15160   0.15316   0.15743   0.16081
 Alpha virt. eigenvalues --    0.16632   0.17491   0.17832   0.18119   0.18758
 Alpha virt. eigenvalues --    0.19202   0.19833   0.20189   0.20340   0.21113
 Alpha virt. eigenvalues --    0.21518   0.21862   0.22413   0.22808   0.23409
 Alpha virt. eigenvalues --    0.23856   0.24084   0.24274   0.25085   0.25946
 Alpha virt. eigenvalues --    0.26231   0.26515   0.27013   0.27625   0.28535
 Alpha virt. eigenvalues --    0.28823   0.28977   0.29837   0.30626   0.31364
 Alpha virt. eigenvalues --    0.32302   0.32478   0.33293   0.34052   0.34365
 Alpha virt. eigenvalues --    0.34547   0.35749   0.36310   0.36638   0.37637
 Alpha virt. eigenvalues --    0.38805   0.40032   0.40339   0.41093   0.41717
 Alpha virt. eigenvalues --    0.43196   0.43539   0.44446   0.45085   0.45970
 Alpha virt. eigenvalues --    0.46143   0.47180   0.47345   0.48196   0.49568
 Alpha virt. eigenvalues --    0.50120   0.50746   0.51562   0.51943   0.52967
 Alpha virt. eigenvalues --    0.54308   0.54906   0.55327   0.56006   0.56641
 Alpha virt. eigenvalues --    0.56729   0.57133   0.57468   0.58074   0.58311
 Alpha virt. eigenvalues --    0.59358   0.60578   0.60661   0.61056   0.61613
 Alpha virt. eigenvalues --    0.62228   0.63087   0.63621   0.64195   0.64404
 Alpha virt. eigenvalues --    0.64975   0.66492   0.67606   0.67819   0.69296
 Alpha virt. eigenvalues --    0.70897   0.71128   0.75823   0.77929   0.80662
 Alpha virt. eigenvalues --    0.82854   0.85257   0.86772   0.88902   0.89457
 Alpha virt. eigenvalues --    0.91183   0.91361   0.94138   0.95301   0.96314
 Alpha virt. eigenvalues --    0.97146   0.97619   0.98434   0.99307   1.00221
 Alpha virt. eigenvalues --    1.01367   1.02712   1.04422   1.05879   1.07187
 Alpha virt. eigenvalues --    1.08657   1.10313   1.10671   1.11922   1.12710
 Alpha virt. eigenvalues --    1.13577   1.14409   1.17304   1.17785   1.19298
 Alpha virt. eigenvalues --    1.20237   1.21790   1.23952   1.25044   1.25739
 Alpha virt. eigenvalues --    1.26860   1.27193   1.28487   1.29570   1.30763
 Alpha virt. eigenvalues --    1.31972   1.32290   1.33308   1.33684   1.34160
 Alpha virt. eigenvalues --    1.34562   1.35344   1.36859   1.37990   1.39197
 Alpha virt. eigenvalues --    1.41170   1.41482   1.43510   1.43624   1.44294
 Alpha virt. eigenvalues --    1.44832   1.45663   1.45921   1.46676   1.46701
 Alpha virt. eigenvalues --    1.47194   1.48944   1.49212   1.49862   1.50649
 Alpha virt. eigenvalues --    1.51242   1.52421   1.52856   1.53696   1.55279
 Alpha virt. eigenvalues --    1.55697   1.56428   1.57344   1.58226   1.59180
 Alpha virt. eigenvalues --    1.59937   1.60573   1.61306   1.61580   1.62443
 Alpha virt. eigenvalues --    1.64155   1.65109   1.65682   1.66906   1.67571
 Alpha virt. eigenvalues --    1.70147   1.71432   1.72525   1.73582   1.75317
 Alpha virt. eigenvalues --    1.76408   1.77859   1.78653   1.80944   1.81482
 Alpha virt. eigenvalues --    1.81581   1.82802   1.86004   1.86981   1.88453
 Alpha virt. eigenvalues --    1.90271   1.91547   1.92089   1.92922   1.95428
 Alpha virt. eigenvalues --    1.96669   1.98157   2.01095   2.01447   2.02132
 Alpha virt. eigenvalues --    2.03512   2.04002   2.05703   2.06802   2.07334
 Alpha virt. eigenvalues --    2.08535   2.09385   2.09933   2.11365   2.13002
 Alpha virt. eigenvalues --    2.14335   2.16606   2.18840   2.21377   2.22345
 Alpha virt. eigenvalues --    2.25344   2.32042   2.32861   2.33138   2.33764
 Alpha virt. eigenvalues --    2.34057   2.37565   2.38806   2.39390   2.40109
 Alpha virt. eigenvalues --    2.40900   2.41337   2.42005   2.42464   2.43535
 Alpha virt. eigenvalues --    2.43860   2.44036   2.45209   2.45921   2.47394
 Alpha virt. eigenvalues --    2.47827   2.48404   2.48519   2.50249   2.51004
 Alpha virt. eigenvalues --    2.54259   2.56470   2.57283   2.58233   2.59980
 Alpha virt. eigenvalues --    2.61843   2.64557   2.67720   2.70193   2.71471
 Alpha virt. eigenvalues --    2.73246   2.74845   2.75393   2.76924   2.77542
 Alpha virt. eigenvalues --    2.78676   2.80320   2.82243   2.82878   2.86395
 Alpha virt. eigenvalues --    2.88669   2.89889   2.91926   2.92273   2.93346
 Alpha virt. eigenvalues --    2.94170   2.95543   2.97285   2.98294   2.99130
 Alpha virt. eigenvalues --    3.00704   3.03197   3.04608   3.05407   3.06207
 Alpha virt. eigenvalues --    3.06936   3.08182   3.10137   3.11288   3.11950
 Alpha virt. eigenvalues --    3.14667   3.15311   3.16515   3.18615   3.20200
 Alpha virt. eigenvalues --    3.22495   3.26340   3.31181   3.37669   3.39263
 Alpha virt. eigenvalues --    3.48282   3.58734   3.65473   3.66991   3.67163
 Alpha virt. eigenvalues --    3.68370   3.68529   3.70893   3.71082   3.71662
 Alpha virt. eigenvalues --    3.72151   3.76472   3.80846   3.84738   3.88353
 Alpha virt. eigenvalues --    3.92836   3.95654   3.99071   4.00478   4.01415
 Alpha virt. eigenvalues --    4.02488   4.07238   4.08445   4.09671   4.11951
 Alpha virt. eigenvalues --    4.20304   4.25003   4.94937   4.98077   4.99185
 Alpha virt. eigenvalues --    5.02984   5.04236   5.07336   5.13180   5.21600
 Alpha virt. eigenvalues --    5.27994   5.31049   5.33226   5.34475   5.47314
 Alpha virt. eigenvalues --    5.58087   5.59652   5.60625   5.64614   5.80922
 Alpha virt. eigenvalues --   23.68851  23.72384  23.75365  23.77623  23.80771
 Alpha virt. eigenvalues --   23.81614  23.87742  23.89003  23.89323  23.90527
 Alpha virt. eigenvalues --   23.90703  49.89474  49.90099  49.94319  49.96114
 Alpha virt. eigenvalues --   49.97035  50.01361
          Condensed to atoms (all electrons):
               1          2          3          4          5          6
     1  C   10.742136  -4.766034   2.114779  -2.600389   0.646651  -0.048787
     2  C   -4.766034  21.011845 -12.047810   4.643409  -0.388974  -1.031785
     3  C    2.114779 -12.047810  24.982403 -15.168076   5.671053  -2.963486
     4  C   -2.600389   4.643409 -15.168076  28.939974 -13.161671   6.290688
     5  C    0.646651  -0.388974   5.671053 -13.161671  21.706455 -10.070835
     6  C   -0.048787  -1.031785  -2.963486   6.290688 -10.070835  15.296850
     7  O   -0.088435  -0.125133   0.274213  -0.150001  -0.068502   0.347968
     8  O    0.048823   0.013273   0.146398  -0.350734   0.113022  -0.041950
     9  O   -0.005407  -0.086340   0.026684   0.052048  -0.246725   0.303680
    10  O   -0.218457   0.162433   0.118931  -0.030229   0.015948  -0.017708
    11  H    0.323193   0.020774   0.006113  -0.016491  -0.019842   0.027196
    12  H    0.353161  -0.100430   0.050883   0.029817   0.009715  -0.012292
    13  H    0.007072   0.151670   0.191348  -0.072548  -0.025862   0.042701
    14  H    0.004535  -0.049849   0.423480  -0.012026   0.011471  -0.017260
    15  H    0.034319  -0.059736   0.141109   0.117407   0.067041  -0.024378
    16  H    0.006415  -0.044372   0.059931  -0.089075   0.338806   0.082388
    17  H   -0.015106  -0.012125   0.036657  -0.030076   0.102194   0.250355
    18  O    0.038551  -0.072566   0.092990  -0.167154   0.297776  -0.102222
    19  C    0.086707  -0.296813   0.032406  -0.042505   0.001119   0.001763
    20  H    0.037338  -0.004742   0.002041  -0.000342   0.000466  -0.000847
    21  H   -0.021205   0.009009   0.000383  -0.000710   0.000952  -0.001801
    22  H   -0.002360  -0.014130  -0.002003  -0.000186  -0.000810   0.002653
    23  C   -0.007563   0.046321  -0.104200   0.207714  -0.303231  -0.121465
    24  H    0.000175  -0.008469   0.005075   0.004264  -0.045025   0.034634
    25  H    0.002148   0.015230   0.000454   0.038612  -0.054870  -0.020825
    26  H   -0.001068  -0.002100  -0.000216  -0.013228   0.060405  -0.006208
    27  C   -0.002376  -0.235776   0.383743  -0.494533  -0.120154   0.095793
    28  H    0.004681   0.005091   0.090315  -0.077068  -0.027806   0.001787
    29  H   -0.000078  -0.004044  -0.008267  -0.031012   0.044266  -0.003928
    30  H    0.000541  -0.000459   0.005094   0.014161   0.003241  -0.001221
    31  C   -0.111665  -0.019333   0.629624  -1.163462   1.283116  -1.317904
    32  O   -0.010678   0.197168  -0.094631  -0.025938  -0.110959   0.191088
    33  C   -0.084629  -0.512100   0.851665  -0.297797   0.433625  -0.739377
    34  H   -0.002074  -0.002522  -0.011527   0.007353  -0.000423   0.001995
    35  H    0.007163  -0.010376   0.007206  -0.004910  -0.006374   0.008617
    36  H   -0.000964   0.002424  -0.002768   0.000183   0.007521  -0.010583
               7          8          9         10         11         12
     1  C   -0.088435   0.048823  -0.005407  -0.218457   0.323193   0.353161
     2  C   -0.125133   0.013273  -0.086340   0.162433   0.020774  -0.100430
     3  C    0.274213   0.146398   0.026684   0.118931   0.006113   0.050883
     4  C   -0.150001  -0.350734   0.052048  -0.030229  -0.016491   0.029817
     5  C   -0.068502   0.113022  -0.246725   0.015948  -0.019842   0.009715
     6  C    0.347968  -0.041950   0.303680  -0.017708   0.027196  -0.012292
     7  O    7.698173  -0.000407   0.014905   0.028432  -0.012454   0.011907
     8  O   -0.000407   7.963805   0.076767   0.000258  -0.000327   0.000159
     9  O    0.014905   0.076767   7.944807  -0.001968   0.019814  -0.012496
    10  O    0.028432   0.000258  -0.001968   8.113690  -0.039478  -0.043227
    11  H   -0.012454  -0.000327   0.019814  -0.039478   0.532772  -0.048731
    12  H    0.011907   0.000159  -0.012496  -0.043227  -0.048731   0.561161
    13  H   -0.019954  -0.001921   0.011715   0.013180   0.005979  -0.004964
    14  H    0.006397  -0.009204  -0.065771  -0.000323  -0.000976   0.007898
    15  H    0.000655  -0.019239   0.012483   0.000287  -0.000001  -0.000160
    16  H    0.004755   0.008429   0.004352  -0.000004   0.000018  -0.000007
    17  H   -0.067353  -0.001763  -0.005920   0.000503  -0.000118   0.000058
    18  O    0.017089   0.004561  -0.001640   0.000416   0.000110  -0.000104
    19  C    0.007041   0.000414   0.000254   0.137296   0.009053   0.002107
    20  H   -0.000092   0.000000  -0.000004  -0.057147  -0.000172  -0.000252
    21  H   -0.000210   0.000001  -0.000157  -0.038379  -0.005198   0.011971
    22  H    0.000893  -0.000001   0.000224  -0.043346   0.014238  -0.004143
    23  C    0.000811  -0.014809   0.001611  -0.000214  -0.000013  -0.000198
    24  H    0.000319   0.001267  -0.000018   0.000002   0.000000  -0.000000
    25  H   -0.000188  -0.003397   0.000083   0.000000  -0.000000  -0.000001
    26  H   -0.000174  -0.000008  -0.000009   0.000003   0.000000  -0.000000
    27  C    0.007108   0.173115   0.019735   0.000043  -0.000128   0.001440
    28  H   -0.000103  -0.042247  -0.004173  -0.000004  -0.000006   0.000029
    29  H   -0.000019  -0.031019   0.000809   0.000001   0.000001  -0.000009
    30  H    0.000015  -0.057879  -0.000314   0.000000   0.000000  -0.000001
    31  C    0.025027   0.083105   0.340764   0.004170   0.004487   0.004439
    32  O   -0.079486   0.019363  -0.082792  -0.000334   0.001050  -0.000531
    33  C    0.035745  -0.128104  -0.516485   0.002519  -0.017432   0.005179
    34  H    0.000232  -0.001177  -0.001775   0.000001  -0.000010   0.000002
    35  H    0.000093   0.000357  -0.009827  -0.000007   0.000060   0.000006
    36  H   -0.000166   0.000168   0.015294   0.000001  -0.000004   0.000000
              13         14         15         16         17         18
     1  C    0.007072   0.004535   0.034319   0.006415  -0.015106   0.038551
     2  C    0.151670  -0.049849  -0.059736  -0.044372  -0.012125  -0.072566
     3  C    0.191348   0.423480   0.141109   0.059931   0.036657   0.092990
     4  C   -0.072548  -0.012026   0.117407  -0.089075  -0.030076  -0.167154
     5  C   -0.025862   0.011471   0.067041   0.338806   0.102194   0.297776
     6  C    0.042701  -0.017260  -0.024378   0.082388   0.250355  -0.102222
     7  O   -0.019954   0.006397   0.000655   0.004755  -0.067353   0.017089
     8  O   -0.001921  -0.009204  -0.019239   0.008429  -0.001763   0.004561
     9  O    0.011715  -0.065771   0.012483   0.004352  -0.005920  -0.001640
    10  O    0.013180  -0.000323   0.000287  -0.000004   0.000503   0.000416
    11  H    0.005979  -0.000976  -0.000001   0.000018  -0.000118   0.000110
    12  H   -0.004964   0.007898  -0.000160  -0.000007   0.000058  -0.000104
    13  H    0.419973  -0.001056   0.001928   0.000001   0.000055  -0.002450
    14  H   -0.001056   0.430045  -0.007341  -0.000066   0.000135  -0.000451
    15  H    0.001928  -0.007341   0.478280   0.000921  -0.000233   0.002585
    16  H    0.000001  -0.000066   0.000921   0.431358  -0.006043  -0.039021
    17  H    0.000055   0.000135  -0.000233  -0.006043   0.442387   0.003775
    18  O   -0.002450  -0.000451   0.002585  -0.039021   0.003775   7.896347
    19  C    0.000342   0.000940   0.000232   0.000016   0.000076   0.000255
    20  H   -0.000096  -0.000002   0.000000   0.000000   0.000001   0.000002
    21  H   -0.000037   0.000026   0.000000  -0.000000   0.000001   0.000002
    22  H    0.000121  -0.000004   0.000000   0.000000  -0.000001   0.000004
    23  C   -0.003186  -0.000348   0.011966  -0.000930  -0.001217   0.133821
    24  H    0.000000  -0.000003  -0.000169   0.011165  -0.000331  -0.042333
    25  H   -0.000038   0.000028   0.005339  -0.002246   0.000065  -0.023101
    26  H   -0.000103  -0.000001  -0.000476  -0.000293  -0.000006  -0.071552
    27  C    0.001965   0.001802   0.004068   0.008081  -0.000570   0.008449
    28  H   -0.000042   0.000850  -0.004163   0.000040   0.000003  -0.000091
    29  H    0.000074  -0.000449   0.014077   0.000031  -0.000002   0.000140
    30  H    0.000005  -0.000140   0.000073  -0.000130  -0.000001   0.000020
    31  C    0.009056   0.022310  -0.002426  -0.017962   0.048464  -0.002779
    32  O   -0.003923  -0.003372   0.001412   0.012252  -0.053664   0.011414
    33  C    0.003559   0.008596  -0.004778  -0.023573   0.021437   0.004996
    34  H    0.000000   0.000055  -0.000007   0.000073   0.000004   0.000001
    35  H    0.000010   0.000031   0.000005   0.000002   0.000014  -0.000004
    36  H   -0.000003   0.000006  -0.000000  -0.000004   0.000029  -0.000003
              19         20         21         22         23         24
     1  C    0.086707   0.037338  -0.021205  -0.002360  -0.007563   0.000175
     2  C   -0.296813  -0.004742   0.009009  -0.014130   0.046321  -0.008469
     3  C    0.032406   0.002041   0.000383  -0.002003  -0.104200   0.005075
     4  C   -0.042505  -0.000342  -0.000710  -0.000186   0.207714   0.004264
     5  C    0.001119   0.000466   0.000952  -0.000810  -0.303231  -0.045025
     6  C    0.001763  -0.000847  -0.001801   0.002653  -0.121465   0.034634
     7  O    0.007041  -0.000092  -0.000210   0.000893   0.000811   0.000319
     8  O    0.000414   0.000000   0.000001  -0.000001  -0.014809   0.001267
     9  O    0.000254  -0.000004  -0.000157   0.000224   0.001611  -0.000018
    10  O    0.137296  -0.057147  -0.038379  -0.043346  -0.000214   0.000002
    11  H    0.009053  -0.000172  -0.005198   0.014238  -0.000013   0.000000
    12  H    0.002107  -0.000252   0.011971  -0.004143  -0.000198  -0.000000
    13  H    0.000342  -0.000096  -0.000037   0.000121  -0.003186   0.000000
    14  H    0.000940  -0.000002   0.000026  -0.000004  -0.000348  -0.000003
    15  H    0.000232   0.000000   0.000000   0.000000   0.011966  -0.000169
    16  H    0.000016   0.000000  -0.000000   0.000000  -0.000930   0.011165
    17  H    0.000076   0.000001   0.000001  -0.000001  -0.001217  -0.000331
    18  O    0.000255   0.000002   0.000002   0.000004   0.133821  -0.042333
    19  C    5.127307   0.399726   0.413348   0.419624  -0.000189   0.000002
    20  H    0.399726   0.477297  -0.022058  -0.020976   0.000001   0.000000
    21  H    0.413348  -0.022058   0.538059  -0.045565  -0.000005   0.000000
    22  H    0.419624  -0.020976  -0.045565   0.534504   0.000004   0.000000
    23  C   -0.000189   0.000001  -0.000005   0.000004   5.207284   0.413170
    24  H    0.000002   0.000000   0.000000   0.000000   0.413170   0.504338
    25  H   -0.000000   0.000000  -0.000000  -0.000000   0.407016  -0.039735
    26  H   -0.000000   0.000000   0.000000   0.000000   0.408189  -0.017880
    27  C    0.000292  -0.000001   0.000011  -0.000005  -0.002145   0.001914
    28  H    0.000007   0.000000  -0.000000  -0.000000  -0.000511   0.000001
    29  H   -0.000000   0.000000  -0.000000   0.000000   0.000608  -0.000008
    30  H    0.000002   0.000000  -0.000000   0.000000  -0.000018  -0.000001
[...]
 0008872,0.00014479,-0.00003654,-0.00016852,0.00027990,-0.00004621,0.00
 163173,0.00052687,-0.00010729,0.00003704,-0.00016079,-0.00004742,-0.00
 061850,-0.00008503,-0.00046401,-0.00049359,0.00009067,-0.00019541,-0.0
 0289850,-0.00102310,-0.00124439,-0.00002352,-0.00121538,-0.00073766,0.
 00050547,-0.00016663,0.00019091,0.00067764,-0.00009955,0.00010014,-0.1
 0781335,0.01225390,0.73558574,0.00052359,0.00002795,-0.00032409,0.0010
 2097,-0.00331722,-0.00165848,-0.00431590,0.00337215,-0.00466671,-0.001
 54495,0.00023090,0.00376783,0.00628799,0.02293532,-0.00767592,-0.05611
 723,0.00565485,-0.00077365,-0.00739558,-0.02982874,0.02498169,-0.00061
 899,-0.00323469,-0.00411679,0.01821559,0.02328000,0.03257829,-0.000674
 47,-0.00024622,0.00023715,0.00020710,0.00001519,-0.00005635,-0.0000385
 8,-0.00001706,-0.00003094,-0.00049975,0.00013449,0.00090351,0.00073122
 ,-0.00073119,0.00047436,0.00055879,0.00013298,-0.00015047,0.00143398,0
 .00014564,0.00015109,0.00271497,-0.00019253,0.00014226,-0.00704513,0.0
 0281946,-0.00631962,0.00043547,-0.00001633,-0.00004804,-0.00004089,-0.
 00002692,0.00000821,-0.00006347,0.00004923,0.00002642,-0.00002360,0.00
 003549,-0.00000585,0.00281132,0.00022912,-0.00081991,-0.00011507,-0.00
 013329,0.00015416,-0.00043145,-0.00005156,-0.00023607,-0.00068855,0.00
 020889,-0.00021391,-0.00068914,0.00213456,0.00014273,0.00019780,-0.000
 51174,-0.00031969,-0.00006080,-0.00051915,-0.00038023,0.00002543,-0.00
 012956,-0.00005380,-0.09480852,0.08707717,0.04295424,0.12833460,0.0004
 5965,-0.00054317,0.00200297,0.00030132,-0.01016736,-0.01849498,0.00031
 132,-0.01133616,0.01979117,-0.00029862,-0.00072172,-0.00524168,-0.0061
 4564,-0.02762814,0.00406614,0.04113466,-0.00678330,-0.03728212,-0.0527
 5093,-0.00707911,0.04628749,0.00028724,0.00320041,-0.00086060,0.022083
 45,-0.01200235,-0.07362356,-0.00053457,0.00154804,0.00020370,-0.000374
 55,-0.00030324,-0.00067723,-0.00095335,0.00017128,0.00093970,0.0017308
 2,0.00250971,0.00335314,-0.00083986,0.00258269,-0.00125817,-0.00160710
 ,0.00127414,0.00066633,-0.00019289,-0.00014962,0.00060902,0.00420692,-
 0.03408685,0.02380096,0.01079929,-0.00029768,0.00744471,0.00103418,-0.
 00002627,-0.00001007,0.00000312,-0.00002347,-0.00004734,-0.00015500,0.
 00009972,0.00016464,-0.00007564,-0.00001975,-0.00012106,-0.00455571,0.
 00049539,0.00039166,0.00022663,0.00008544,-0.00020415,0.00097656,-0.00
 005680,0.00061121,0.00082789,-0.00021116,0.00035620,0.00113158,-0.0006
 1949,-0.00087224,-0.00043192,0.00043357,0.00068722,-0.00042528,0.00020
 365,-0.00008637,0.00019814,0.00016303,0.00018803,0.08565035,-0.4007723
 5,-0.07879473,-0.11735815,0.56146515,-0.00086730,-0.00015353,0.0002520
 9,-0.00226787,0.00267888,0.00112421,0.00060746,-0.00478945,0.00898428,
 0.00266569,0.00085102,0.00076081,-0.00275840,0.02532471,-0.01218766,-0
 .00254339,-0.01000608,-0.07564373,0.02279084,0.02438642,-0.01695711,-0
 .00187016,-0.00165550,-0.00103485,0.02888526,-0.06132448,-0.04001437,0
 .00117929,0.00038906,-0.00019163,-0.00011526,0.00003162,-0.00014009,0.
 00003032,0.00001610,0.00007856,0.00014031,-0.00012238,-0.00059610,-0.0
 0043231,0.00032673,0.00002119,-0.00025823,0.00066773,0.00082038,-0.001
 02835,0.00010028,0.00028861,0.00058311,-0.01089709,0.00912994,-0.00629
 720,0.00079211,-0.00072053,-0.00083178,0.00013704,0.00000002,0.0000777
 6,0.00003600,-0.00002260,0.00009426,-0.00007265,-0.00001749,0.00008499
 ,-0.00009606,0.00003939,0.00169025,0.00061431,-0.00066258,-0.00016567,
 0.00001649,0.00007596,-0.00007539,-0.00001315,-0.00004099,-0.00048502,
 0.00011186,-0.00015008,0.00014487,0.00051313,-0.00011926,0.00003574,0.
 00024432,0.00010414,-0.00014913,-0.00013775,-0.00006979,-0.00016744,-0
 .00000079,-0.00005466,0.04740736,-0.10475711,-0.17118305,-0.07942492,0
 .11655004,0.28458037,0.00001570,0.00012314,-0.00020808,-0.00010996,0.0
 0141388,-0.00006863,0.00490113,0.00447687,-0.00065665,-0.00016491,-0.0
 0117173,0.00166404,-0.00033579,-0.00056333,0.00051274,0.00429780,0.000
 34367,0.00436393,0.00182375,0.00033652,-0.00250140,0.00009311,0.000560
 02,-0.00021311,0.00823991,-0.00641727,0.01294757,-0.00017894,-0.000119
 53,0.00007227,0.00006490,-0.00002320,0.00001586,0.00005660,-0.00003246
 ,0.00000663,0.00002525,0.00002091,-0.00004684,0.00031951,-0.00067968,0
 .00055179,0.00052066,-0.00016132,-0.00031659,-0.00013758,-0.00010071,-
 0.00010325,-0.00024337,0.00085296,-0.00063641,0.00044461,-0.00041174,0
 .00037716,0.00010984,-0.00003675,-0.00003741,-0.00001354,-0.00000426,0
 .00000762,-0.00000255,0.00001115,0.00001135,0.00000436,0.00000592,-0.0
 0000171,-0.00030940,0.00003769,0.00005368,0.00001894,0.00000936,-0.000
 02768,0.00000233,0.00002420,0.00000110,0.00004280,-0.00002538,0.000003
 85,-0.00003056,-0.00022363,-0.00023686,-0.00005498,-0.00001651,0.00006
 898,-0.00004814,0.00000092,0.00001195,0.00003492,0.00001898,0.00001035
 ,-0.08768517,0.01287804,-0.01050624,0.01262307,0.01150462,-0.00806882,
 0.54082905,0.00008758,0.00013432,-0.00006088,-0.00032287,-0.00021579,-
 0.00212677,0.00363816,0.00244688,-0.00320658,-0.00006339,-0.00116022,0
 .00073854,-0.00084707,-0.00098146,-0.00014396,0.00393186,0.00856233,-0
 .00641789,-0.00285819,-0.00004822,0.00260797,-0.00010931,0.00087357,0.
 00026552,-0.00185888,0.00806462,0.00463502,-0.00027789,-0.00005476,0.0
 0010867,0.00005579,-0.00002052,0.00001327,-0.00007321,0.00001191,0.000
 06875,0.00023876,0.00024259,0.00030998,0.00002052,0.00029550,-0.000240
 54,0.00019843,-0.00013411,-0.00005450,-0.00008019,0.00000214,0.0000173
 6,0.00016900,-0.00064788,0.00060220,0.00099019,-0.00051653,0.00074118,
 0.00024210,-0.00003976,-0.00002503,-0.00001599,-0.00001320,0.00000254,
 -0.00002145,0.00002354,0.00001796,-0.00000929,0.00001878,-0.00001175,-
 0.00056109,0.00009781,0.00000618,0.00003747,0.00001112,-0.00002789,0.0
 0007590,0.00001649,0.00003702,0.00007692,-0.00003842,0.00003435,-0.000
 03626,-0.00040205,-0.00021576,-0.00005443,0.00001798,0.00012085,0.0000
 0680,0.00008017,0.00004235,0.00010495,0.00000775,0.00002632,0.00376437
 ,-0.17255988,0.07640242,0.00651560,-0.05503661,0.01492162,-0.03265743,
 0.54243489,-0.00041286,-0.00001847,0.00006823,-0.00075353,0.00025868,-
 0.00255429,0.00513671,-0.00255765,0.00340568,0.00070414,-0.00002208,-0
 .00041698,-0.00048173,-0.00094407,-0.00037684,0.00275297,0.00051173,-0
 .00286614,-0.00178349,0.00019349,0.00181297,-0.00034649,-0.00002593,0.
 00007639,0.00438051,0.03088506,-0.04591188,0.00040280,0.00013126,-0.00
 000634,0.00001571,-0.00001110,-0.00000396,-0.00002224,0.00003307,0.000
 07954,0.00050197,0.00044393,0.00030665,-0.00011222,0.00058740,-0.00050
 143,-0.00022526,0.00012334,0.00009234,-0.00001933,0.00007875,0.0000622
 5,0.00011261,-0.00068281,0.00050065,0.00029048,0.00008558,0.00038356,-
 0.00018241,0.00006249,0.00000296,0.00002899,0.00000477,-0.00000462,0.0
 0000993,-0.00001715,-0.00000532,0.00002437,-0.00001852,0.00001289,-0.0
 0005137,-0.00005993,0.00003450,-0.00001163,0.00000867,0.00000561,0.000
 04343,0.00000372,0.00003352,0.00003589,-0.00000420,0.00001137,0.000252
 11,0.00009263,0.00021295,0.00001810,0.00005363,0.00009726,-0.00002247,
 0.00002617,-0.00001824,-0.00001270,0.00000668,-0.00000641,-0.00532518,
 0.07789293,-0.13809261,-0.00019635,-0.01348726,0.01344601,-0.00107881,
 0.04894397,0.59000439,-0.00009219,-0.00003059,0.00001058,-0.00007877,0
 .00004552,0.00010926,-0.00013813,-0.00056021,0.00051494,0.00020625,0.0
 0026105,-0.00015043,0.00019004,0.00002828,-0.00003254,-0.00048047,-0.0
 0110798,0.00047882,0.00020822,0.00012614,-0.00024734,-0.00021204,-0.00
 018423,-0.00010849,0.00061836,-0.00004042,-0.00184086,0.00012997,0.000
 03221,-0.00002199,-0.00000839,0.00001779,-0.00000785,0.00001186,0.0000
 0318,-0.00000203,0.00002316,0.00001665,-0.00001014,-0.00003142,0.00003
 959,-0.00004563,-0.00009442,0.00006136,0.00003412,0.00001234,0.0000308
 5,0.00000358,-0.00001495,0.00001430,-0.00003856,-0.00020208,0.00014895
 ,-0.00011993,-0.00008847,0.00001977,0.00000037,0.00000902,0.00000282,-
 0.00000075,0.00000712,-0.00000804,-0.00000367,0.00000781,-0.00000752,0
 .00000646,0.00013237,-0.00003607,0.00000445,-0.00001115,0.00000264,0.0
 0001041,-0.00000912,-0.00000371,-0.00000797,-0.00001466,0.00000884,-0.
 00000548,0.00022507,0.00013266,0.00002795,-0.00000171,0.00000253,0.000
 06347,-0.00005617,-0.00003357,0.00000876,-0.00008816,-0.00002916,-0.00
 006320,0.00035114,-0.00366391,0.00324125,-0.00113087,0.00354961,0.0004
 9730,-0.26769170,-0.09904800,-0.00534589,0.29001513,-0.00001898,-0.000
 01039,0.00003833,0.00002440,0.00017148,-0.00014343,0.00055759,0.000240
 80,0.00042090,-0.00026660,-0.00048471,0.00024583,-0.00029979,-0.000407
 07,0.00010713,0.00152187,0.00011121,0.00055890,0.00015235,0.00017850,-
 0.00029687,-0.00017080,0.00026243,-0.00071158,0.00166125,-0.00026542,-
 0.00089406,0.00004152,0.00002210,-0.00001580,-0.00000522,-0.00000711,-
 0.00000608,-0.00000018,0.00000019,0.00000266,0.00001174,0.00000859,0.0
 0001339,0.00006313,-0.00007569,0.00007483,0.00010247,0.00006474,-0.000
 10537,0.00000835,-0.00005532,-0.00001424,-0.00004105,0.00005744,-0.000
 04250,0.00019613,-0.00001485,0.00009914,-0.00002193,0.00000372,0.00000
 970,0.00000183,0.00000218,-0.00000089,0.00000122,-0.00000345,-0.000002
 32,0.00000044,-0.00000283,-0.00000153,-0.00005294,-0.00001329,0.000047
 34,0.00000242,-0.00000212,-0.00000671,0.00001001,0.00000019,0.00001286
 ,0.00001884,-0.00000186,0.00000204,0.00015183,0.00041990,0.00036327,0.
 00006638,-0.00002977,-0.00001960,-0.00001256,-0.00006381,-0.00008070,-
 0.00003212,0.00004342,0.00002254,-0.02860349,-0.01455929,-0.00051951,0
 .00233730,-0.00106878,0.00115625,-0.10204141,-0.08377150,0.00091405,0.
 11062641,0.09265255,-0.00000965,-0.00002121,0.00003537,0.00000897,-0.0
 0019632,0.00018232,-0.00136406,-0.00090917,0.00002105,0.00054909,0.000
 76681,-0.00066907,-0.00000943,0.00011472,-0.00000845,-0.00045636,-0.00
 022788,-0.00016087,-0.00003607,-0.00000198,0.00006476,-0.00001368,-0.0
 0078505,0.00036304,-0.00151781,0.00119469,-0.00252254,0.00003443,0.000
 01593,-0.00001716,-0.00002167,0.00000281,-0.00000776,0.00000262,0.0000
 0253,-0.00000744,-0.00000467,-0.00001092,-0.00000874,-0.00006616,0.000
 18022,-0.00016565,-0.00021794,0.00003195,0.00014744,0.00001192,0.00003
 170,0.00003181,-0.00001223,-0.00003626,0.00002454,-0.00007447,-0.00000
 358,-0.00006373,-0.00002669,0.00000978,0.00000264,0.00000304,0.0000000
 3,-0.00000030,0.00000300,-0.00000191,-0.00000184,0.00000186,-0.0000029
 1,0.00000170,0.00003356,0.00000675,0.00000821,-0.00000078,-0.00000203,
 0.00000136,-0.00000318,-0.00000395,-0.00001088,-0.00000594,0.00000101,
 -0.00000301,-0.00012147,0.00016185,-0.00003481,0.00013032,0.00001790,-
 0.00021882,0.00003463,-0.00013103,0.00003507,-0.00018895,0.00000185,-0
 .00003428,0.02269176,0.00736902,-0.00099809,-0.00082509,-0.00023723,0.
 00027537,-0.00310921,0.00218228,-0.03948446,0.00296210,-0.00186122,0.0
 4248717,0.00006599,-0.00007619,0.00009601,0.00006940,0.00000013,0.0000
 5837,0.00001219,-0.00002264,-0.00022543,-0.00000927,-0.00000472,0.0000
 1725,-0.00009228,-0.00008396,-0.00001833,0.00045002,-0.00033056,0.0001
 6811,-0.00012266,0.00013360,-0.00003624,-0.00005324,-0.00011631,-0.000
 19058,0.00042418,-0.00076863,-0.00011734,-0.00004287,0.00005142,-0.000
 03816,-0.00001944,0.00000508,-0.00003812,-0.00000782,-0.00000116,-0.00
 001005,-0.00003223,-0.00001726,-0.00000423,0.00001407,0.00002764,-0.00
 001258,0.00001514,0.00002564,-0.00000163,0.00001577,-0.00001405,0.0000
 0154,-0.00000897,-0.00002319,-0.00000222,0.00004199,-0.00002600,0.0000
 2450,0.00002425,-0.00001554,0.00002832,-0.00000430,0.00000432,-0.00000
 289,-0.00000222,-0.00000129,0.00000035,-0.00000760,-0.00000092,-0.0000
 1281,-0.00000031,0.00000636,0.00001737,-0.00000014,-0.00000142,-0.0000
 0166,0.00000199,-0.00000340,-0.00000182,0.00000349,-0.00000117,0.00000
 106,-0.00004321,0.00022979,0.00017835,0.00005774,-0.00001073,-0.000106
 47,0.00002799,-0.00006724,-0.00002530,-0.00003504,0.00001140,0.0000047
 8,-0.00138250,-0.00413735,0.00052470,0.00040639,-0.00115206,0.00060854
 ,-0.16181074,0.13069823,0.06061290,-0.01666398,0.02052701,0.00900699,0
 .17283304,0.00002553,-0.00014336,0.00018289,-0.00002335,-0.00022753,-0
 .00046024,-0.00038362,-0.00050439,0.00080627,0.00008859,0.00011395,-0.
 00036062,-0.00019365,-0.00031353,-0.00010108,0.00097600,0.00124837,-0.
 00147287,-0.00089690,0.00005712,0.00079362,-0.00010031,-0.00002610,-0.
 00005573,-0.00105004,0.00165669,-0.00281043,0.00008419,0.00013444,-0.0
 0006864,-0.00006193,0.00000398,-0.00004689,-0.00003555,0.00001742,-0.0
 0000101,0.00006381,0.00007360,0.00006045,-0.00002001,0.00010463,-0.000
 06387,-0.00011547,0.00006102,0.00004246,0.00001022,0.00001247,0.000027
 25,0.00005486,-0.00024241,0.00020529,0.00012785,0.00000983,0.00010778,
 -0.00005183,0.00000847,0.00003937,0.00000555,0.00000579,-0.00000534,-0
 .00000003,-0.00000606,-0.00000650,-0.00000318,-0.00000608,-0.00000653,
 -0.00002331,-0.00001259,0.00001470,-0.00000202,0.00000097,0.00000097,0
 .00001630,-0.00000190,0.00001123,0.00001347,-0.00000110,0.00000577,0.0
 0004594,0.00008683,0.00009130,0.00001924,0.00002864,-0.00001063,0.0000
 0340,-0.00000120,-0.00001410,-0.00001662,0.00001052,0.00001140,0.01810
 274,-0.01972508,-0.01036918,-0.00025685,-0.00563703,0.00435066,0.12687
 655,-0.17464847,-0.06280690,-0.00916411,0.01037622,0.00460296,-0.13716
 221,0.19152381,-0.00003217,0.00004142,-0.00001008,0.00005636,0.0001776
 3,0.00036558,-0.00038347,-0.00000558,0.00025351,0.00008632,0.00013183,
 -0.00005070,0.00013119,-0.00000217,0.00009178,-0.00002131,-0.00082872,
 0.00173454,0.00064322,-0.00001492,-0.00075721,-0.00005064,-0.00020911,
 -0.00016195,0.00120879,0.00020173,-0.00118997,0.00001210,-0.00006168,-
 0.00000867,0.00001416,0.00001752,0.00004084,0.00001900,-0.00000401,-0.
 00004129,-0.00003385,-0.00005439,-0.00005689,0.00000225,-0.00007547,0.
 00002887,-0.00001541,0.00003056,-0.00000575,0.00000979,-0.00000024,-0.
 00002414,-0.00006070,0.00028995,-0.00024563,-0.00011948,0.00006023,-0.
 00009344,-0.00000778,0.00000098,0.00000911,0.00000110,-0.00000114,0.00
 000014,0.00000180,-0.00000058,-0.00000866,0.00000041,0.00000361,0.0000
 0258,0.00007441,-0.00001918,0.00000753,-0.00000494,-0.00000050,0.00000
 315,-0.00001372,-0.00000090,-0.00000720,-0.00001014,0.00000509,-0.0000
 0509,-0.00001668,0.00019952,0.00012311,0.00001279,-0.00001612,-0.00005
 801,0.00001089,-0.00004082,-0.00002176,-0.00001318,-0.00001437,-0.0000
 1029,-0.01786591,0.01087503,0.00878395,0.00083275,0.00611438,-0.001921
 09,0.06496182,-0.06695664,-0.08453259,-0.00087767,0.00016654,-0.000999
 01,-0.06848388,0.06773430,0.08373774,0.00002157,-0.00004655,0.00006869
 ,0.00003318,-0.00002950,0.00003349,0.00010530,-0.00007321,0.00028578,-
 0.00003947,-0.00008783,0.00005412,0.00006765,-0.00002406,-0.00008477,-
 0.00001315,-0.00009452,0.00003180,-0.00013284,0.00000085,0.00003178,-0
 .00006291,0.00012285,-0.00015613,0.00153211,-0.00097400,0.00073083,0.0
 0000141,0.00002427,-0.00003755,-0.00001395,0.00002883,-0.00000986,-0.0
 0000596,0.00000446,-0.00002419,-0.00001664,-0.00000425,-0.00000178,-0.
 00000168,-0.00002618,0.00003412,0.00001791,0.00002599,-0.00001606,-0.0
 0000731,0.00000969,-0.00001325,0.00003483,0.00000516,-0.00000355,-0.00
 006452,0.00005644,-0.00000552,0.00000297,-0.00000816,0.00002978,-0.000
 00049,0.00000201,-0.00000078,-0.00000174,-0.00000161,-0.00000732,-0.00
 000567,0.00000434,-0.00000479,0.00005014,-0.00001753,-0.00001009,-0.00
 000602,0.00000195,0.00000482,-0.00000241,-0.00000237,-0.00000082,-0.00
 000381,0.00000305,0.00000076,0.00005255,0.00005079,0.00009372,-0.00001
 607,-0.00000678,0.00003594,-0.00000658,0.00001490,-0.00001494,0.000033
 53,-0.00000783,0.00000032,-0.00362379,-0.00297798,0.00337299,-0.000225
 35,0.00143392,0.00028331,-0.05565093,-0.01195770,-0.05893970,-0.005039
 05,-0.00651740,-0.02738878,0.00587514,0.00304673,0.01993179,0.05711203
 ,0.00010213,-0.00001776,-0.00000749,0.00021258,-0.00004309,0.00064664,
 -0.00127727,0.00016707,-0.00011043,-0.00027948,0.00003881,0.00002729,0
 .00005122,0.00019541,0.00003528,-0.00044891,-0.00040601,0.00030627,0.0
 0023563,-0.00002375,-0.00039162,0.00015852,0.00008933,-0.00002355,-0.0
 0053429,-0.00423304,0.00573130,-0.00008381,-0.00002162,-0.00001058,-0.
 00000927,0.00000803,-0.00000404,0.00000248,-0.00000766,-0.00001840,-0.
 00012068,-0.00010806,-0.00007962,0.00001930,-0.00018062,0.00016384,0.0
 0005086,-0.00001763,-0.00002111,0.00000933,-0.00002102,-0.00001239,0.0
 0001613,-0.00002527,0.00000048,-0.00004696,-0.00001895,-0.00007445,0.0
 0003012,-0.00001543,0.00000556,-0.00000647,-0.00000018,0.00000234,-0.0
 0000328,0.00000208,-0.00000180,-0.00000773,0.00000720,-0.00000257,0.00
 000620,0.00001439,-0.00000058,0.00000416,-0.00000061,-0.00000195,-0.00
 000736,-0.00000305,-0.00000644,-0.00000427,0.00000172,-0.00000139,-0.0
 0003756,-0.00011596,-0.00009487,-0.00002518,-0.00001765,0.00004970,-0.
 00000762,0.00003528,0.00000733,0.00004492,-0.00000329,0.00000940,0.008
 44569,0.01020866,0.02607523,-0.00076508,0.00033818,-0.00019036,-0.0148
 0903,-0.07305301,-0.08068594,-0.00125364,-0.00377843,-0.01226213,-0.00
 768262,-0.00403795,-0.01774379,0.01802124,0.07504388,-0.00004209,0.000
 05796,-0.00002582,-0.00010971,0.00001947,-0.00051775,0.00067889,-0.000
 26022,0.00040968,0.00010544,-0.00007458,-0.00005673,-0.00019668,-0.000
 26531,-0.00003390,0.00090168,0.00130599,-0.00040235,-0.00038572,-0.000
 04854,0.00040589,-0.00001943,0.00005318,0.00009063,-0.00120021,0.00327
 459,-0.00239793,0.00000043,-0.00001124,0.00003149,0.00001797,-0.000020
 33,0.00000332,-0.00000634,0.00000017,0.00002722,0.00009296,0.00005485,
 0.00007850,-0.00000930,0.00010551,-0.00009363,-0.00002855,0.00000803,0
 .00001946,-0.00001729,0.00001257,0.00001186,-0.00000386,-0.00000350,0.
 00003343,0.00019635,-0.00009583,0.00017044,0.00001887,0.00000468,-0.00
 001649,0.00000117,-0.00000311,0.00000120,-0.00000147,0.00000240,0.0000
 0462,0.00000481,-0.00000024,0.00000208,-0.00009960,0.00000652,0.000001
 98,0.00000690,0.00000417,-0.00000352,0.00001666,0.00000360,0.00000783,
 0.00001647,-0.00000749,0.00000735,0.00000304,-0.00003895,-0.00001785,0
 .00000338,0.00001433,0.00000673,-0.00000036,0.00000067,0.00000917,-0.0
 0001006,0.00000549,-0.00000349,-0.00368456,-0.00654020,-0.01899742,0.0
 0094220,-0.00292992,0.00174630,-0.05782499,-0.07335814,-0.29586763,0.0
 0095661,0.00046670,0.00173504,-0.00201941,-0.00042811,-0.00497302,0.06
 169583,0.07868486,0.31860333\\0.00000096,0.00000081,-0.00000485,0.0000
 0142,-0.00000237,0.00000041,-0.00000707,0.00000870,-0.00001228,0.00000
 322,-0.00001176,0.00000647,0.00000067,0.00000181,-0.00000341,0.0000116
 3,0.00001026,-0.00001022,-0.00001005,-0.00000570,0.00000250,-0.0000010
 1,0.00000347,-0.00000494,-0.00000504,0.00000067,0.00001903,0.00000193,
 -0.00000375,0.00001141,-0.00000217,0.00000028,0.00000669,0.00000463,-0
 .00000537,0.00000530,0.00000208,-0.00000277,-0.00000182,0.00000169,-0.
 00000586,0.00000483,0.00000129,-0.00000037,-0.00000269,-0.00000081,0.0
 0000351,-0.00000410,-0.00000290,0.00000371,-0.00000305,0.00000260,-0.0
 0000095,-0.00000479,0.00000415,-0.00000409,-0.00000594,0.00000290,-0.0
 0000450,0.00000100,0.00000107,-0.00000566,0.00000413,0.00000056,-0.000
 00128,0.00000323,-0.00000327,0.00000215,-0.00001104,0.00000232,0.00000
 094,-0.00000962,0.00000332,-0.00000165,-0.00000687,0.00000209,-0.00000
 153,-0.00001029,0.00000113,-0.00000318,0.00000321,-0.00000058,-0.00000
 141,0.00000494,0.00000098,-0.00000253,0.00000151,-0.00000067,-0.000000
 31,0.00000188,0.00000025,0.00000901,-0.00000987,-0.00000503,-0.0000021
 7,0.00000316,0.00000076,0.00000357,0.00000991,-0.00000439,0.00000617,0
 .00000419,-0.00000391,0.00000468,0.00000769,-0.00000477,0.00000747,0.0
 0000428\\\@


 TWO ROADS DIVERGED IN A WOOD, AND I--
 I TOOK THE ONE LESS TRAVELED BY,
 AND THAT HAS MADE ALL THE DIFFERENCE.

                       -- ROBERT FROST
 Job cpu time:       0 days  6 hours 19 minutes 20.0 seconds.
 File lengths (MBytes):  RWF=    766 Int=      0 D2E=      0 Chk=     19 Scr=      1
 Normal termination of Gaussian 09 at Tue Oct 24 14:58:15 2017.
