 Entering Gaussian System, Link 0=g09
 Initial command:
 /share/apps//g09/l1.exe "/scratch/Gau-11384.inp" -scrdir="/scratch/"
 Entering Link 1 = /share/apps//g09/l1.exe PID=     11385.
  
 Copyright (c) 1988,1990,1992,1993,1995,1998,2003,2009,2013,
            Gaussian, Inc.  All Rights Reserved.
  
 This is part of the Gaussian(R) 09 program.  It is based on
 the Gaussian(R) 03 system (copyright 2003, Gaussian, Inc.),
 the Gaussian(R) 98 system (copyright 1998, Gaussian, Inc.),
 the Gaussian(R) 94 system (copyright 1995, Gaussian, Inc.),
 the Gaussian 92(TM) system (copyright 1992, Gaussian, Inc.),
 the Gaussian 90(TM) system (copyright 1990, Gaussian, Inc.),
 the Gaussian 88(TM) system (copyright 1988, Gaussian, Inc.),
 the Gaussian 86(TM) system (copyright 1986, Carnegie Mellon
 University), and the Gaussian 82(TM) system (copyright 1983,
 Carnegie Mellon University). Gaussian is a federally registered
 trademark of Gaussian, Inc.
  
 This software contains proprietary and confidential information,
 including trade secrets, belonging to Gaussian, Inc.
  
 This software is provided under written license and may be
 used, copied, transmitted, or stored only in accord with that
 written license.
  
 The following legend is applicable only to US Government
 contracts under FAR:
  
                    RESTRICTED RIGHTS LEGEND
  
 Use, reproduction and disclosure by the US Government is
 subject to restrictions as set forth in subparagraphs (a)
 and (c) of the Commercial Computer Software - Restricted
 Rights clause in FAR 52.227-19.
  
 Gaussian, Inc.
 340 Quinnipiac St., Bldg. 40, Wallingford CT 06492
  
  
 ---------------------------------------------------------------
 Warning -- This program may not be used in any manner that
 competes with the business of Gaussian, Inc. or will provide
 assistance to any competitor of Gaussian, Inc.  The licensee
 of this program is prohibited from giving any competitor of
 Gaussian, Inc. access to this program.  By using this program,
 the user acknowledges that Gaussian, Inc. is engaged in the
 business of creating and licensing software in the field of
 computational chemistry and represents and warrants to the
 licensee that it is not a competitor of Gaussian, Inc. and that
 it will not use this program in any manner prohibited above.
 ---------------------------------------------------------------
  

 Cite this work as:
 Gaussian 09, Revision D.01,
 M. J. Frisch, G. W. Trucks, H. B. Schlegel, G. E. Scuseria, 
 M. A. Robb, J. R. Cheeseman, G. Scalmani, V. Barone, B. Mennucci, 
 G. A. Petersson, H. Nakatsuji, M. Caricato, X. Li, H. P. Hratchian, 
 A. F. Izmaylov, J. Bloino, G. Zheng, J. L. Sonnenberg, M. Hada, 
 M. Ehara, K. Toyota, R. Fukuda, J. Hasegawa, M. Ishida, T. Nakajima, 
 Y. Honda, O. Kitao, H. Nakai, T. Vreven, J. A. Montgomery, Jr., 
 J. E. Peralta, F. Ogliaro, M. Bearpark, J. J. Heyd, E. Brothers, 
 K. N. Kudin, V. N. Staroverov, T. Keith, R. Kobayashi, J. Normand, 
 K. Raghavachari, A. Rendell, J. C. Burant, S. S. Iyengar, J. Tomasi, 
 M. Cossi, N. Rega, J. M. Millam, M. Klene, J. E. Knox, J. B. Cross, 
 V. Bakken, C. Adamo, J. Jaramillo, R. Gomperts, R. E. Stratmann, 
 O. Yazyev, A. J. Austin, R. Cammi, C. Pomelli, J. W. Ochterski, 
 R. L. Martin, K. Morokuma, V. G. Zakrzewski, G. A. Voth, 
 P. Salvador, J. J. Dannenberg, S. Dapprich, A. D. Daniels, 
 O. Farkas, J. B. Foresman, J. V. Ortiz, J. Cioslowski, 
 and D. J. Fox, Gaussian, Inc., Wallingford CT, 2013.
 
 ******************************************
 Gaussian 09:  EM64L-G09RevD.01 24-Apr-2013
                 8-Jan-2017 
 ******************************************
 %nproc=20
 Will use up to   20 processors via shared memory.
 %mem=100GB
 %chk=Ac-4_cGalMe.chk
 -------------------------------------------------------------------
 #P PBE1PBE/6-311+G(d,p) opt optcyc=999 freq EmpiricalDispersion=GD3
 -------------------------------------------------------------------
 1/6=999,14=-1,18=20,19=15,26=3,38=1/1,3;
 2/9=110,12=2,17=6,18=5,40=1/2;
 3/5=4,6=6,7=111,11=2,16=1,25=1,30=1,71=1,74=-13,124=31/1,2,3;
 4//1;
 5/5=2,38=5/2;
 6/7=2,8=2,9=2,10=2,28=1/1;
 7//1,2,3,16;
 1/6=999,14=-1,18=20,19=15,26=3/3(2);
 2/9=110/2;
 99//99;
 2/9=110/2;
 3/5=4,6=6,7=111,11=2,16=1,25=1,30=1,71=1,74=-13,124=31/1,2,3;
 4/5=5,16=3,69=1/1;
 5/5=2,38=5/2;
 7//1,2,3,16;
 1/6=999,14=-1,18=20,19=15,26=3/3(-5);
 2/9=110/2;
 6/7=2,8=2,9=2,10=2,19=2,28=1/1;
 99/9=1/99;
 Leave Link    1 at Sun Jan  8 05:27:16 2017, MaxMem= 13421772800 cpu:         1.7
 (Enter /share/apps//g09/l101.exe)
 -------
 disacch
 -------
 Symbolic Z-matrix:
 Charge =  1 Multiplicity = 1
 C                    -1.15673  -1.23637   3.18766 
 C                    -0.13698  -0.94306   2.09947 
 C                     0.5108    0.43741   2.12057 
 C                     1.59475   0.57594   1.01784 
 C                     1.11444  -0.10681  -0.29201 
 C                    -0.37667  -0.42225  -0.21443 
 O                    -0.79649  -1.18022   0.8143 
 O                     1.92183   1.91165   0.71219 
 O                    -0.48187   1.53264   1.97765 
 O                    -2.18897  -0.27214   3.16044 
 H                    -0.63346  -1.24916   4.1654 
 H                    -1.55296  -2.25454   3.00961 
 H                     0.68019  -1.6807    2.19496 
 H                     0.92102   0.63511   3.11867 
 H                     2.47702   0.01638   1.38779 
 H                     1.2884    0.60044  -1.12281 
 H                    -0.80273  -0.80797  -1.14565 
 O                     1.7253   -1.35936  -0.51957 
 C                    -3.24814  -0.59551   4.06981 
 H                    -3.99934   0.19576   3.97283 
 H                    -3.70558  -1.56639   3.81536 
 H                    -2.88523  -0.62616   5.11117 
 C                     3.00922  -1.26161  -1.16209 
 H                     2.91806  -0.76499  -2.1412 
 H                     3.73635  -0.71318  -0.54082 
 H                     3.35655  -2.29035  -1.30074 
 C                     2.66106   2.59756   1.73707 
 H                     2.0357    2.82238   2.61657 
 H                     3.53887   2.00764   2.04787 
 H                     2.99775   3.53884   1.29063 
 C                    -1.13021   1.74518   0.87451 
 O                    -1.10885   1.01004  -0.17486 
 C                    -2.01027   2.93793   0.86757 
 H                    -1.55171   3.75605   1.43235 
 H                    -2.94758   2.65773   1.37389 
 H                    -2.24153   3.2369   -0.1585 
 
 NAtoms=     36 NQM=       36 NQMF=       0 NMMI=      0 NMMIF=      0
                NMic=       0 NMicF=      0.
                    Isotopes and Nuclear Properties:
 (Nuclear quadrupole moments (NQMom) in fm**2, nuclear magnetic moments (NMagM)
  in nuclear magnetons)

  Atom         1           2           3           4           5           6           7           8           9          10
 IAtWgt=          12          12          12          12          12          12          16          16          16          16
 AtmWgt=  12.0000000  12.0000000  12.0000000  12.0000000  12.0000000  12.0000000  15.9949146  15.9949146  15.9949146  15.9949146
 NucSpn=           0           0           0           0           0           0           0           0           0           0
 AtZEff=   0.0000000   0.0000000   0.0000000   0.0000000   0.0000000   0.0000000   0.0000000   0.0000000   0.0000000   0.0000000
 NQMom=    0.0000000   0.0000000   0.0000000   0.0000000   0.0000000   0.0000000   0.0000000   0.0000000   0.0000000   0.0000000
 NMagM=    0.0000000   0.0000000   0.0000000   0.0000000   0.0000000   0.0000000   0.0000000   0.0000000   0.0000000   0.0000000
 AtZNuc=   6.0000000   6.0000000   6.0000000   6.0000000   6.0000000   6.0000000   8.0000000   8.0000000   8.0000000   8.0000000

  Atom        11          12          13          14          15          16          17          18          19          20
 IAtWgt=           1           1           1           1           1           1           1          16          12           1
 AtmWgt=   1.0078250   1.0078250   1.0078250   1.0078250   1.0078250   1.0078250   1.0078250  15.9949146  12.0000000   1.0078250
 NucSpn=           1           1           1           1           1           1           1           0           0           1
 AtZEff=   0.0000000   0.0000000   0.0000000   0.0000000   0.0000000   0.0000000   0.0000000   0.0000000   0.0000000   0.0000000
 NQMom=    0.0000000   0.0000000   0.0000000   0.0000000   0.0000000   0.0000000   0.0000000   0.0000000   0.0000000   0.0000000
 NMagM=    2.7928460   2.7928460   2.7928460   2.7928460   2.7928460   2.7928460   2.7928460   0.0000000   0.0000000   2.7928460
 AtZNuc=   1.0000000   1.0000000   1.0000000   1.0000000   1.0000000   1.0000000   1.0000000   8.0000000   6.0000000   1.0000000

  Atom        21          22          23          24          25          26          27          28          29          30
 IAtWgt=           1           1          12           1           1           1          12           1           1           1
 AtmWgt=   1.0078250   1.0078250  12.0000000   1.0078250   1.0078250   1.0078250  12.0000000   1.0078250   1.0078250   1.0078250
 NucSpn=           1           1           0           1           1           1           0           1           1           1
 AtZEff=   0.0000000   0.0000000   0.0000000   0.0000000   0.0000000   0.0000000   0.0000000   0.0000000   0.0000000   0.0000000
 NQMom=    0.0000000   0.0000000   0.0000000   0.0000000   0.0000000   0.0000000   0.0000000   0.0000000   0.0000000   0.0000000
 NMagM=    2.7928460   2.7928460   0.0000000   2.7928460   2.7928460   2.7928460   0.0000000   2.7928460   2.7928460   2.7928460
 AtZNuc=   1.0000000   1.0000000   6.0000000   1.0000000   1.0000000   1.0000000   6.0000000   1.0000000   1.0000000   1.0000000

  Atom        31          32          33          34          35          36
 IAtWgt=          12          16          12           1           1           1
 AtmWgt=  12.0000000  15.9949146  12.0000000   1.0078250   1.0078250   1.0078250
 NucSpn=           0           0           0           1           1           1
 AtZEff=   0.0000000   0.0000000   0.0000000   0.0000000   0.0000000   0.0000000
 NQMom=    0.0000000   0.0000000   0.0000000   0.0000000   0.0000000   0.0000000
 NMagM=    0.0000000   0.0000000   0.0000000   2.7928460   2.7928460   2.7928460
 AtZNuc=   6.0000000   8.0000000   6.0000000   1.0000000   1.0000000   1.0000000
 Leave Link  101 at Sun Jan  8 05:27:16 2017, MaxMem= 13421772800 cpu:         4.7
 (Enter /share/apps//g09/l103.exe)

 GradGradGradGradGradGradGradGradGradGradGradGradGradGradGradGradGradGrad
 Berny optimization.
 Initialization pass.
                           ----------------------------
                           !    Initial Parameters    !
                           ! (Angstroms and Degrees)  !
 --------------------------                            --------------------------
 ! Name  Definition              Value          Derivative Info.                !
 --------------------------------------------------------------------------------
 ! R1    R(1,2)                  1.5199         estimate D2E/DX2                !
 ! R2    R(1,10)                 1.4128         estimate D2E/DX2                !
 ! R3    R(1,11)                 1.109          estimate D2E/DX2                !
 ! R4    R(1,12)                 1.107          estimate D2E/DX2                !
 ! R5    R(2,3)                  1.525          estimate D2E/DX2                !
 ! R6    R(2,7)                  1.4639         estimate D2E/DX2                !
 ! R7    R(2,13)                 1.105          estimate D2E/DX2                !
 ! R8    R(3,4)                  1.5525         estimate D2E/DX2                !
 ! R9    R(3,9)                  1.485          estimate D2E/DX2                !
 ! R10   R(3,14)                 1.0971         estimate D2E/DX2                !
 ! R11   R(4,5)                  1.5532         estimate D2E/DX2                !
 ! R12   R(4,8)                  1.4087         estimate D2E/DX2                !
 ! R13   R(4,15)                 1.1083         estimate D2E/DX2                !
 ! R14   R(5,6)                  1.5261         estimate D2E/DX2                !
 ! R15   R(5,16)                 1.1048         estimate D2E/DX2                !
 ! R16   R(5,18)                 1.412          estimate D2E/DX2                !
 ! R17   R(6,7)                  1.345          estimate D2E/DX2                !
 ! R18   R(6,17)                 1.0943         estimate D2E/DX2                !
 ! R19   R(6,32)                 1.6091         estimate D2E/DX2                !
 ! R20   R(8,27)                 1.4378         estimate D2E/DX2                !
 ! R21   R(9,31)                 1.2971         estimate D2E/DX2                !
 ! R22   R(10,19)                1.433          estimate D2E/DX2                !
 ! R23   R(18,23)                1.439          estimate D2E/DX2                !
 ! R24   R(19,20)                1.0954         estimate D2E/DX2                !
 ! R25   R(19,21)                1.103          estimate D2E/DX2                !
 ! R26   R(19,22)                1.1032         estimate D2E/DX2                !
 ! R27   R(23,24)                1.1016         estimate D2E/DX2                !
 ! R28   R(23,25)                1.1025         estimate D2E/DX2                !
 ! R29   R(23,26)                1.0946         estimate D2E/DX2                !
 ! R30   R(27,28)                1.1023         estimate D2E/DX2                !
 ! R31   R(27,29)                1.1023         estimate D2E/DX2                !
 ! R32   R(27,30)                1.0948         estimate D2E/DX2                !
 ! R33   R(31,32)                1.2814         estimate D2E/DX2                !
 ! R34   R(31,33)                1.4823         estimate D2E/DX2                !
 ! R35   R(33,34)                1.0948         estimate D2E/DX2                !
 ! R36   R(33,35)                1.1016         estimate D2E/DX2                !
 ! R37   R(33,36)                1.0935         estimate D2E/DX2                !
 ! A1    A(2,1,10)             110.1638         estimate D2E/DX2                !
 ! A2    A(2,1,11)             108.4735         estimate D2E/DX2                !
 ! A3    A(2,1,12)             107.6077         estimate D2E/DX2                !
 ! A4    A(10,1,11)            111.6903         estimate D2E/DX2                !
 ! A5    A(10,1,12)            111.2923         estimate D2E/DX2                !
 ! A6    A(11,1,12)            107.4626         estimate D2E/DX2                !
 ! A7    A(1,2,3)              116.7288         estimate D2E/DX2                !
 ! A8    A(1,2,7)              107.1594         estimate D2E/DX2                !
 ! A9    A(1,2,13)             107.787          estimate D2E/DX2                !
 ! A10   A(3,2,7)              110.4975         estimate D2E/DX2                !
 ! A11   A(3,2,13)             106.7952         estimate D2E/DX2                !
 ! A12   A(7,2,13)             107.5116         estimate D2E/DX2                !
 ! A13   A(2,3,4)              111.5627         estimate D2E/DX2                !
 ! A14   A(2,3,9)              112.4781         estimate D2E/DX2                !
 ! A15   A(2,3,14)             109.5445         estimate D2E/DX2                !
 ! A16   A(4,3,9)              109.4235         estimate D2E/DX2                !
 ! A17   A(4,3,14)             111.6583         estimate D2E/DX2                !
 ! A18   A(9,3,14)             101.8061         estimate D2E/DX2                !
 ! A19   A(3,4,5)              110.113          estimate D2E/DX2                !
 ! A20   A(3,4,8)              113.6302         estimate D2E/DX2                !
 ! A21   A(3,4,15)             105.8821         estimate D2E/DX2                !
 ! A22   A(5,4,8)              107.7948         estimate D2E/DX2                !
 ! A23   A(5,4,15)             107.8018         estimate D2E/DX2                !
 ! A24   A(8,4,15)             111.4876         estimate D2E/DX2                !
 ! A25   A(4,5,6)              110.4954         estimate D2E/DX2                !
 ! A26   A(4,5,16)             107.7015         estimate D2E/DX2                !
 ! A27   A(4,5,18)             113.082          estimate D2E/DX2                !
 ! A28   A(6,5,16)             108.9283         estimate D2E/DX2                !
 ! A29   A(6,5,18)             104.3318         estimate D2E/DX2                !
 ! A30   A(16,5,18)            112.243          estimate D2E/DX2                !
 ! A31   A(5,6,7)              117.4093         estimate D2E/DX2                !
 ! A32   A(5,6,17)             114.2062         estimate D2E/DX2                !
 ! A33   A(5,6,32)             105.1808         estimate D2E/DX2                !
 ! A34   A(7,6,17)             109.3115         estimate D2E/DX2                !
 ! A35   A(7,6,32)             109.925          estimate D2E/DX2                !
 ! A36   A(17,6,32)             99.0629         estimate D2E/DX2                !
 ! A37   A(2,7,6)              116.0761         estimate D2E/DX2                !
 ! A38   A(4,8,27)             114.6478         estimate D2E/DX2                !
 ! A39   A(3,9,31)             122.4671         estimate D2E/DX2                !
 ! A40   A(1,10,19)            111.9505         estimate D2E/DX2                !
 ! A41   A(5,18,23)            113.4332         estimate D2E/DX2                !
 ! A42   A(10,19,20)           106.7207         estimate D2E/DX2                !
 ! A43   A(10,19,21)           111.0254         estimate D2E/DX2                !
 ! A44   A(10,19,22)           111.2324         estimate D2E/DX2                !
 ! A45   A(20,19,21)           109.3302         estimate D2E/DX2                !
 ! A46   A(20,19,22)           109.2228         estimate D2E/DX2                !
 ! A47   A(21,19,22)           109.2523         estimate D2E/DX2                !
 ! A48   A(18,23,24)           110.7092         estimate D2E/DX2                !
 ! A49   A(18,23,25)           111.7543         estimate D2E/DX2                !
 ! A50   A(18,23,26)           106.011          estimate D2E/DX2                !
 ! A51   A(24,23,25)           109.3397         estimate D2E/DX2                !
 ! A52   A(24,23,26)           109.7158         estimate D2E/DX2                !
 ! A53   A(25,23,26)           109.2455         estimate D2E/DX2                !
 ! A54   A(8,27,28)            111.9832         estimate D2E/DX2                !
 ! A55   A(8,27,29)            110.799          estimate D2E/DX2                !
 ! A56   A(8,27,30)            106.1165         estimate D2E/DX2                !
 ! A57   A(28,27,29)           109.6301         estimate D2E/DX2                !
 ! A58   A(28,27,30)           108.9325         estimate D2E/DX2                !
 ! A59   A(29,27,30)           109.2794         estimate D2E/DX2                !
 ! A60   A(9,31,32)            126.4501         estimate D2E/DX2                !
 ! A61   A(9,31,33)            115.6325         estimate D2E/DX2                !
 ! A62   A(32,31,33)           117.8843         estimate D2E/DX2                !
 ! A63   A(6,32,31)            122.5736         estimate D2E/DX2                !
 ! A64   A(31,33,34)           110.5005         estimate D2E/DX2                !
 ! A65   A(31,33,35)           107.3589         estimate D2E/DX2                !
 ! A66   A(31,33,36)           110.4851         estimate D2E/DX2                !
 ! A67   A(34,33,35)           108.0212         estimate D2E/DX2                !
 ! A68   A(34,33,36)           111.6136         estimate D2E/DX2                !
 ! A69   A(35,33,36)           108.7173         estimate D2E/DX2                !
 ! D1    D(10,1,2,3)            56.5431         estimate D2E/DX2                !
 ! D2    D(10,1,2,7)           -67.9159         estimate D2E/DX2                !
 ! D3    D(10,1,2,13)          176.6303         estimate D2E/DX2                !
 ! D4    D(11,1,2,3)           -65.9902         estimate D2E/DX2                !
 ! D5    D(11,1,2,7)           169.5508         estimate D2E/DX2                !
 ! D6    D(11,1,2,13)           54.097          estimate D2E/DX2                !
 ! D7    D(12,1,2,3)           178.0358         estimate D2E/DX2                !
 ! D8    D(12,1,2,7)            53.5768         estimate D2E/DX2                !
 ! D9    D(12,1,2,13)          -61.8771         estimate D2E/DX2                !
 ! D10   D(2,1,10,19)          173.4496         estimate D2E/DX2                !
 ! D11   D(11,1,10,19)         -65.9308         estimate D2E/DX2                !
 ! D12   D(12,1,10,19)          54.1767         estimate D2E/DX2                !
 ! D13   D(1,2,3,4)            176.3254         estimate D2E/DX2                !
 ! D14   D(1,2,3,9)            -60.2746         estimate D2E/DX2                !
 ! D15   D(1,2,3,14)            52.1734         estimate D2E/DX2                !
 ! D16   D(7,2,3,4)            -60.9291         estimate D2E/DX2                !
 ! D17   D(7,2,3,9)             62.471          estimate D2E/DX2                !
 ! D18   D(7,2,3,14)           174.9189         estimate D2E/DX2                !
 ! D19   D(13,2,3,4)            55.7109         estimate D2E/DX2                !
 ! D20   D(13,2,3,9)           179.111          estimate D2E/DX2                !
 ! D21   D(13,2,3,14)          -68.4411         estimate D2E/DX2                !
 ! D22   D(1,2,7,6)            149.0579         estimate D2E/DX2                !
 ! D23   D(3,2,7,6)             20.89           estimate D2E/DX2                !
 ! D24   D(13,2,7,6)           -95.305          estimate D2E/DX2                !
 ! D25   D(2,3,4,5)             40.1728         estimate D2E/DX2                !
 ! D26   D(2,3,4,8)            161.2012         estimate D2E/DX2                !
 ! D27   D(2,3,4,15)           -76.1032         estimate D2E/DX2                !
 ! D28   D(9,3,4,5)            -84.9447         estimate D2E/DX2                !
 ! D29   D(9,3,4,8)             36.0837         estimate D2E/DX2                !
 ! D30   D(9,3,4,15)           158.7793         estimate D2E/DX2                !
 ! D31   D(14,3,4,5)           163.1266         estimate D2E/DX2                !
 ! D32   D(14,3,4,8)           -75.845          estimate D2E/DX2                !
 ! D33   D(14,3,4,15)           46.8506         estimate D2E/DX2                !
 ! D34   D(2,3,9,31)           -68.873          estimate D2E/DX2                !
 ! D35   D(4,3,9,31)            55.7128         estimate D2E/DX2                !
 ! D36   D(14,3,9,31)          173.9748         estimate D2E/DX2                !
 ! D37   D(3,4,5,6)             12.9618         estimate D2E/DX2                !
 ! D38   D(3,4,5,16)           131.8316         estimate D2E/DX2                !
 ! D39   D(3,4,5,18)          -103.5613         estimate D2E/DX2                !
 ! D40   D(8,4,5,6)           -111.4996         estimate D2E/DX2                !
 ! D41   D(8,4,5,16)             7.3702         estimate D2E/DX2                !
 ! D42   D(8,4,5,18)           131.9773         estimate D2E/DX2                !
 ! D43   D(15,4,5,6)           128.0287         estimate D2E/DX2                !
 ! D44   D(15,4,5,16)         -113.1015         estimate D2E/DX2                !
 ! D45   D(15,4,5,18)           11.5056         estimate D2E/DX2                !
 ! D46   D(3,4,8,27)            70.9391         estimate D2E/DX2                !
 ! D47   D(5,4,8,27)          -166.7419         estimate D2E/DX2                !
 ! D48   D(15,4,8,27)          -48.6153         estimate D2E/DX2                !
 ! D49   D(4,5,6,7)            -56.2531         estimate D2E/DX2                !
 ! D50   D(4,5,6,17)           173.8394         estimate D2E/DX2                !
 ! D51   D(4,5,6,32)            66.3262         estimate D2E/DX2                !
 ! D52   D(16,5,6,7)          -174.3748         estimate D2E/DX2                !
 ! D53   D(16,5,6,17)           55.7177         estimate D2E/DX2                !
 ! D54   D(16,5,6,32)          -51.7955         estimate D2E/DX2                !
 ! D55   D(18,5,6,7)            65.5827         estimate D2E/DX2                !
 ! D56   D(18,5,6,17)          -64.3248         estimate D2E/DX2                !
 ! D57   D(18,5,6,32)         -171.8381         estimate D2E/DX2                !
 ! D58   D(4,5,18,23)          -84.2109         estimate D2E/DX2                !
 ! D59   D(6,5,18,23)          155.6761         estimate D2E/DX2                !
 ! D60   D(16,5,18,23)          37.8877         estimate D2E/DX2                !
 ! D61   D(5,6,7,2)             37.6401         estimate D2E/DX2                !
 ! D62   D(17,6,7,2)           169.7938         estimate D2E/DX2                !
 ! D63   D(32,6,7,2)           -82.4745         estimate D2E/DX2                !
 ! D64   D(5,6,32,31)          -75.6444         estimate D2E/DX2                !
 ! D65   D(7,6,32,31)           51.6358         estimate D2E/DX2                !
 ! D66   D(17,6,32,31)         166.0939         estimate D2E/DX2                !
 ! D67   D(4,8,27,28)          -71.4904         estimate D2E/DX2                !
 ! D68   D(4,8,27,29)           51.2532         estimate D2E/DX2                !
 ! D69   D(4,8,27,30)          169.7686         estimate D2E/DX2                !
 ! D70   D(3,9,31,32)            6.4439         estimate D2E/DX2                !
 ! D71   D(3,9,31,33)         -175.7086         estimate D2E/DX2                !
 ! D72   D(1,10,19,20)        -179.4788         estimate D2E/DX2                !
 ! D73   D(1,10,19,21)         -60.4174         estimate D2E/DX2                !
 ! D74   D(1,10,19,22)          61.474          estimate D2E/DX2                !
 ! D75   D(5,18,23,24)         -59.6941         estimate D2E/DX2                !
 ! D76   D(5,18,23,25)          62.4502         estimate D2E/DX2                !
 ! D77   D(5,18,23,26)        -178.6211         estimate D2E/DX2                !
 ! D78   D(9,31,32,6)            7.3669         estimate D2E/DX2                !
 ! D79   D(33,31,32,6)        -170.4374         estimate D2E/DX2                !
 ! D80   D(9,31,33,34)          36.6927         estimate D2E/DX2                !
 ! D81   D(9,31,33,35)         -80.8833         estimate D2E/DX2                !
 ! D82   D(9,31,33,36)         160.7125         estimate D2E/DX2                !
 ! D83   D(32,31,33,34)       -145.2661         estimate D2E/DX2                !
 ! D84   D(32,31,33,35)         97.1579         estimate D2E/DX2                !
 ! D85   D(32,31,33,36)        -21.2463         estimate D2E/DX2                !
 --------------------------------------------------------------------------------
 Trust Radius=3.00D-01 FncErr=1.00D-07 GrdErr=1.00D-06
 Number of steps in this run=    216 maximum allowed number of steps=    216.
 GradGradGradGradGradGradGradGradGradGradGradGradGradGradGradGradGradGrad

 Leave Link  103 at Sun Jan  8 05:27:17 2017, MaxMem= 13421772800 cpu:         0.3
 (Enter /share/apps//g09/l202.exe)
                          Input orientation:                          
 ---------------------------------------------------------------------
 Center     Atomic      Atomic             Coordinates (Angstroms)
 Number     Number       Type             X           Y           Z
 ---------------------------------------------------------------------
      1          6           0       -1.156730   -1.236370    3.187660
      2          6           0       -0.136980   -0.943060    2.099470
      3          6           0        0.510800    0.437410    2.120570
      4          6           0        1.594750    0.575940    1.017840
      5          6           0        1.114440   -0.106810   -0.292010
      6          6           0       -0.376670   -0.422250   -0.214430
      7          8           0       -0.796490   -1.180220    0.814300
      8          8           0        1.921830    1.911650    0.712190
      9          8           0       -0.481870    1.532640    1.977650
     10          8           0       -2.188970   -0.272140    3.160440
     11          1           0       -0.633460   -1.249160    4.165400
     12          1           0       -1.552960   -2.254540    3.009610
     13          1           0        0.680190   -1.680700    2.194960
     14          1           0        0.921020    0.635110    3.118670
     15          1           0        2.477020    0.016380    1.387790
     16          1           0        1.288400    0.600440   -1.122810
     17          1           0       -0.802730   -0.807970   -1.145650
     18          8           0        1.725300   -1.359360   -0.519570
     19          6           0       -3.248140   -0.595510    4.069810
     20          1           0       -3.999340    0.195760    3.972830
     21          1           0       -3.705580   -1.566390    3.815360
     22          1           0       -2.885230   -0.626160    5.111170
     23          6           0        3.009220   -1.261610   -1.162090
     24          1           0        2.918060   -0.764990   -2.141200
     25          1           0        3.736350   -0.713180   -0.540820
     26          1           0        3.356550   -2.290350   -1.300740
     27          6           0        2.661060    2.597560    1.737070
     28          1           0        2.035700    2.822380    2.616570
     29          1           0        3.538870    2.007640    2.047870
     30          1           0        2.997750    3.538840    1.290630
     31          6           0       -1.130210    1.745180    0.874510
     32          8           0       -1.108850    1.010040   -0.174860
     33          6           0       -2.010270    2.937930    0.867570
     34          1           0       -1.551710    3.756050    1.432350
     35          1           0       -2.947580    2.657730    1.373890
     36          1           0       -2.241530    3.236900   -0.158500
 ---------------------------------------------------------------------
                    Distance matrix (angstroms):
                    1          2          3          4          5
     1  C    0.000000
     2  C    1.519894   0.000000
     3  C    2.592465   1.525045   0.000000
     4  C    3.945026   2.544833   1.552466   0.000000
     5  C    4.306068   2.825693   2.545800   1.553239   0.000000
     6  C    3.584062   2.383868   2.641750   2.530093   1.526083
     7  O    2.401200   1.463851   2.456028   2.973812   2.455155
     8  O    5.051288   3.783202   2.479501   1.408732   2.394677
     9  O    3.096284   2.502575   1.485042   2.479690   3.222943
    10  O    1.412799   2.405505   2.978850   4.430182   4.781136
    11  H    1.109031   2.146685   2.887071   4.266503   4.922258
    12  H    1.106964   2.133854   3.506578   4.678338   4.756938
    13  H    2.134750   1.104988   2.126174   2.704525   2.975016
    14  H    2.797185   2.156097   1.097073   2.207012   3.495797
    15  H    4.244179   2.874023   2.140153   1.108319   2.166455
    16  H    5.285138   3.846711   3.339275   2.162599   1.104850
    17  H    4.368801   3.315460   3.734237   3.513375   2.212661
    18  O    4.697316   3.240488   3.416684   2.475088   1.412025
    19  C    2.358577   3.698966   4.358450   5.842979   6.188409
    20  H    3.278402   4.441195   4.881662   6.338008   6.665670
    21  H    2.645668   4.008457   4.966426   6.364683   6.498727
    22  H    2.657058   4.089455   4.648429   6.186325   6.742510
    23  C    6.022965   4.542887   4.461460   3.182673   2.383442
    24  H    6.724795   5.229556   5.040174   3.678148   2.665661
    25  H    6.173939   4.693257   4.337168   2.945794   2.702592
    26  H    6.451845   5.057803   5.219610   4.085997   3.288228
    27  C    5.601674   4.527290   3.071960   2.396092   3.717905
    28  H    5.195306   4.377953   2.873920   2.792287   4.229505
    29  H    5.819912   4.713933   3.411761   2.624944   3.977914
    30  H    6.607651   5.528850   4.061107   3.289620   4.397996
    31  C    3.773726   3.116676   2.440459   2.968682   3.135138
    32  O    4.044155   3.151461   2.867084   2.986709   2.490802
    33  C    4.851405   4.482062   3.765422   4.312511   4.514297
    34  H    5.306730   4.952590   3.967489   4.492786   5.000346
    35  H    4.654129   4.625108   4.177050   5.009330   5.188247
    36  H    5.690670   5.196116   4.539452   4.814720   4.739278
                    6          7          8          9         10
     6  C    0.000000
     7  O    1.345010   0.000000
     8  O    3.404235   4.118173   0.000000
     9  O    2.939026   2.968498   2.742774   0.000000
    10  O    3.833629   2.875410   5.259424   2.751438   0.000000
    11  H    4.464598   3.355772   5.333375   3.542265   2.093830
    12  H    3.890421   2.558475   5.891472   4.068772   2.087383
    13  H    2.916472   2.082615   4.079860   3.423910   3.338903
    14  H    3.729821   3.399321   2.902124   2.018808   3.239890
    15  H    3.301977   3.532225   2.087276   3.376686   4.999699
    16  H    2.154880   3.357069   2.342590   3.689946   5.585672
    17  H    1.094293   1.994997   4.274474   3.916173   4.555347
    18  O    2.321543   2.858448   3.500766   4.412638   5.481426
    19  C    5.160433   4.117137   6.654927   4.069202   1.432956
    20  H    5.571249   4.704028   6.973973   4.259177   2.038712
    21  H    5.350692   4.197415   7.307131   4.834612   2.098597
    22  H    5.890371   4.809668   6.992806   4.500612   2.101299
    23  C    3.614808   4.289076   3.842515   5.463837   6.832605
    24  H    3.832122   4.765006   4.037166   5.814082   7.377807
    25  H    4.136194   4.754063   3.428155   5.401831   7.000233
    26  H    4.313560   4.790984   4.875153   6.332185   7.397844
    27  C    4.706953   5.203631   1.437815   3.327152   5.812396
    28  H    4.935759   5.224010   2.114015   2.899967   5.264949
    29  H    5.133597   5.520824   2.099541   4.049309   6.264452
    30  H    5.416839   6.073934   2.034685   4.074873   6.702374
    31  C    2.539954   2.944989   3.060884   1.297087   3.227387
    32  O    1.609071   2.423478   3.284019   2.302067   3.732944
    33  C    3.889754   4.293630   4.066793   2.354384   3.948890
    34  H    4.642283   5.031809   3.998240   2.526947   4.429301
    35  H    4.314929   4.435109   4.970476   2.776703   3.514454
    36  H    4.107336   4.748203   4.455104   3.250237   4.830268
                   11         12         13         14         15
    11  H    0.000000
    12  H    1.786650   0.000000
    13  H    2.407184   2.445385   0.000000
    14  H    2.657541   3.805594   2.504838   0.000000
    15  H    4.357958   4.901848   2.600039   2.408300   0.000000
    16  H    5.922814   5.770713   4.071992   4.257502   2.838495
    17  H    5.332031   4.463361   3.757710   4.820604   4.225474
    18  O    5.246412   4.899331   2.926463   4.226295   2.468960
    19  C    2.696840   2.598084   4.486031   4.449830   6.351779
    20  H    3.667973   3.593959   5.346020   5.013238   6.975518
    21  H    3.108228   2.399282   4.676937   5.170823   6.828089
    22  H    2.520531   2.973738   4.725310   4.477544   6.559736
    23  C    6.453791   6.261188   4.107286   5.126698   2.901445
    24  H    7.254028   6.981377   4.964763   5.797817   3.641267
    25  H    6.444457   6.554246   4.214345   4.809973   2.416135
    26  H    6.847112   6.533275   4.444603   5.832779   3.650037
    27  C    5.616752   6.551351   4.736773   2.964417   2.611198
    28  H    5.108887   6.229613   4.721535   2.505747   3.094883
    29  H    5.700791   6.709535   4.668783   3.143818   2.351244
    30  H    6.661451   7.564860   5.782084   4.010759   3.562067
    31  C    4.476917   4.553584   4.093628   3.236673   4.032904
    32  O    4.916079   4.582092   4.007093   3.886938   4.035802
    33  C    5.504817   5.635531   5.507475   4.354640   5.379763
    34  H    5.776233   6.214092   5.926314   4.324157   5.497070
    35  H    5.330241   5.361990   5.714617   4.701204   6.033507
    36  H    6.434806   6.377065   6.185306   5.245081   5.918401
                   16         17         18         19         20
    16  H    0.000000
    17  H    2.521302   0.000000
    18  O    2.096568   2.662131   0.000000
    19  C    6.998128   5.764217   6.810358   0.000000
    20  H    7.354557   6.117567   7.441207   1.095361   0.000000
    21  H    7.349865   5.797703   6.951902   1.102998   1.793395
    22  H    7.601726   6.596791   7.314356   1.103211   1.792376
    23  C    2.535743   3.838883   1.439041   8.183582   8.809724
    24  H    2.357395   3.851914   2.098961   8.753707   9.281962
    25  H    2.838445   4.580180   2.112421   8.369878   9.002228
    26  H    3.558872   4.418270   2.034194   8.679702   9.386181
    27  C    3.748546   5.648500   4.650300   7.110275   7.424836
    28  H    4.413438   5.948985   5.236284   6.458548   6.720140
    29  H    4.134977   6.080766   4.606243   7.545074   7.988303
    30  H    4.169024   6.266886   5.374785   7.989232   8.205465
    31  C    3.339070   3.272135   4.442473   4.491592   4.498021
    32  O    2.610209   2.083579   3.710160   5.017128   5.120675
    33  C    4.506295   4.420744   5.860490   4.926648   4.595491
    34  H    4.955093   5.295029   6.380925   5.363781   5.012045
    35  H    5.330054   4.791611   6.446550   4.235787   3.731218
    36  H    4.510124   4.405177   6.082082   5.794759   5.422759
                   21         22         23         24         25
    21  H    0.000000
    22  H    1.798925   0.000000
    23  C    8.363997   8.631462   0.000000
    24  H    8.944018   9.289474   1.101634   0.000000
    25  H    8.665252   8.706198   1.102484   1.798193   0.000000
    26  H    8.750559   9.101755   1.094609   1.795931   1.791422
    27  C    7.886182   7.248328   4.839374   5.139433   4.160052
    28  H    7.325346   6.506229   5.648450   6.023633   5.036021
    29  H    8.269206   7.588792   4.612198   5.061738   3.760741
    30  H    8.796151   8.158015   5.390759   5.505158   4.688221
    31  C    5.123244   5.162619   5.506669   5.637726   5.632948
    32  O    5.413211   5.811608   4.805571   4.820086   5.155519
    33  C    5.643797   5.610386   6.852075   6.859501   6.952540
    34  H    6.216612   5.875011   7.260173   7.293072   7.199375
    35  H    4.937462   4.975448   7.568083   7.647000   7.726841
    36  H    6.403640   6.565592   6.986713   6.824045   7.175260
                   26         27         28         29         30
    26  H    0.000000
    27  C    5.796866   0.000000
    28  H    6.574950   1.102334   0.000000
    29  H    5.451527   1.102340   1.801872   0.000000
    30  H    6.389319   1.094841   1.788008   1.791870   0.000000
    31  C    6.414689   3.980489   3.770692   4.821407   4.520003
    32  O    5.665684   4.515298   4.578739   5.247574   5.040501
    33  C    7.799951   4.763739   4.409334   5.749044   5.061654
    34  H    8.253469   4.379770   3.891481   5.417546   4.556847
    35  H    8.448621   5.620708   5.138525   6.553694   6.010843
    36  H    7.949447   5.295029   5.115421   6.308104   5.444373
                   31         32         33         34         35
    31  C    0.000000
    32  O    1.281431   0.000000
    33  C    1.482298   2.369806   0.000000
    34  H    2.128954   3.212448   1.094794   0.000000
    35  H    2.094030   2.914522   1.101554   1.777126   0.000000
    36  H    2.127762   2.498427   1.093473   1.810020   1.783862
                   36
    36  H    0.000000
 Stoichiometry    C11H19O6(1+)
 Framework group  C1[X(C11H19O6)]
 Deg. of freedom   102
 Full point group                 C1      NOp   1
 Largest Abelian subgroup         C1      NOp   1
 Largest concise Abelian subgroup C1      NOp   1
                         Standard orientation:                         
 ---------------------------------------------------------------------
 Center     Atomic      Atomic             Coordinates (Angstroms)
 Number     Number       Type             X           Y           Z
 ---------------------------------------------------------------------
      1          6           0        2.114701   -1.470608   -1.007577
      2          6           0        0.649624   -1.224521   -0.686532
      3          6           0        0.097793    0.158154   -1.017371
      4          6           0       -1.424642    0.249222   -0.727457
      5          6           0       -1.762541   -0.496474    0.592510
      6          6           0       -0.487295   -0.814250    1.368200
      7          8           0        0.462427   -1.524726    0.733924
      8          8           0       -1.898866    1.570440   -0.609054
      9          8           0        0.805074    1.241210   -0.287924
     10          8           0        2.923593   -0.513127   -0.355716
     11          1           0        2.243982   -1.435127   -2.108476
     12          1           0        2.362003   -2.497707   -0.677004
     13          1           0        0.050891   -1.953366   -1.262120
     14          1           0        0.326536    0.404368   -2.061701
     15          1           0       -1.924229   -0.288543   -1.557874
     16          1           0       -2.396299    0.171611    1.203007
     17          1           0       -0.660442   -1.245192    2.359051
     18          8           0       -2.364407   -1.755740    0.378448
     19          6           0        4.319601   -0.797827   -0.508914
     20          1           0        4.862095   -0.015202    0.032394
     21          1           0        4.572393   -1.781546   -0.078801
     22          1           0        4.617218   -0.777872   -1.571034
     23          6           0       -3.787163   -1.682889    0.175233
     24          1           0       -4.283134   -1.233308    1.050155
     25          1           0       -4.041878   -1.102731   -0.726990
     26          1           0       -4.127254   -2.715529    0.048111
     27          6           0       -1.936240    2.306978   -1.843327
     28          1           0       -0.926099    2.570294   -2.197474
     29          1           0       -2.465235    1.736083   -2.623965
     30          1           0       -2.489512    3.227619   -1.631228
     31          6           0        0.702130    1.398819    0.995430
     32          8           0        0.102557    0.615188    1.813048
     33          6           0        1.392378    2.586167    1.553078
     34          1           0        1.319466    3.431912    0.861722
     35          1           0        2.457210    2.326131    1.662325
     36          1           0        0.989180    2.835512    2.538443
 ---------------------------------------------------------------------
 Rotational constants (GHZ):      0.6566872      0.3821345      0.3255686
 Leave Link  202 at Sun Jan  8 05:27:17 2017, MaxMem= 13421772800 cpu:         0.6
 (Enter /share/apps//g09/l301.exe)
 Standard basis: 6-311+G(d,p) (5D, 7F)
 Ernie: Thresh=  0.10000D-02 Tol=  0.10000D-05 Strict=F.
 There are   505 symmetry adapted cartesian basis functions of A   symmetry.
 There are   488 symmetry adapted basis functions of A   symmetry.
   488 basis functions,   764 primitive gaussians,   505 cartesian basis functions
    66 alpha electrons       66 beta electrons
       nuclear repulsion energy      1449.9637757504 Hartrees.
 IExCor= 1009 DFT=T Ex+Corr=PBE1PBE ExCW=0 ScaHFX=  0.250000
 ScaDFX=  0.750000  0.750000  1.000000  1.000000 ScalE2=  1.000000  1.000000
 IRadAn=      0 IRanWt=     -1 IRanGd=            0 ICorTp=0 IEmpDi=131
 NAtoms=   36 NActive=   36 NUniq=   36 SFac= 1.00D+00 NAtFMM=   60 NAOKFM=F Big=F
 Integral buffers will be    131072 words long.
 Raffenetti 2 integral format.
 Two-electron integral symmetry is turned on.
 R6Disp:  Grimme-D3 Dispersion energy=       -0.0246288992 Hartrees.
 Nuclear repulsion after empirical dispersion term =     1449.9391468512 Hartrees.
 Leave Link  301 at Sun Jan  8 05:27:17 2017, MaxMem= 13421772800 cpu:         1.6
 (Enter /share/apps//g09/l302.exe)
 NPDir=0 NMtPBC=     1 NCelOv=     1 NCel=       1 NClECP=     1 NCelD=      1
         NCelK=      1 NCelE2=     1 NClLst=     1 CellRange=     0.0.
 One-electron integrals computed using PRISM.
 NBasis=   488 RedAO= T EigKep=  1.65D-06  NBF=   488
 NBsUse=   488 1.00D-06 EigRej= -1.00D+00 NBFU=   488
 Precomputing XC quadrature grid using
 IXCGrd= 4 IRadAn=           0 IRanWt=          -1 IRanGd=           0 AccXCQ= 0.00D+00.
 Generated NRdTot=       0 NPtTot=           0 NUsed=           0 NTot=          32
 NSgBfM=   504   504   504   504   504 MxSgAt=    36 MxSgA2=    36.
 Leave Link  302 at Sun Jan  8 05:27:18 2017, MaxMem= 13421772800 cpu:        12.0
 (Enter /share/apps//g09/l303.exe)
 DipDrv:  MaxL=1.
 Leave Link  303 at Sun Jan  8 05:27:18 2017, MaxMem= 13421772800 cpu:         6.9
 (Enter /share/apps//g09/l401.exe)
 ExpMin= 4.38D-02 ExpMax= 8.59D+03 ExpMxC= 1.30D+03 IAcc=2 IRadAn=         4 AccDes= 0.00D+00
 Harris functional with IExCor= 1009 and IRadAn=       4 diagonalized for initial guess.
 HarFok:  IExCor= 1009 AccDes= 0.00D+00 IRadAn=         4 IDoV= 1 UseB2=F ITyADJ=14
 ICtDFT=  3500011 ScaDFX=  1.000000  1.000000  1.000000  1.000000
 FoFCou: FMM=F IPFlag=           0 FMFlag=      100000 FMFlg1=           0
         NFxFlg=           0 DoJE=T BraDBF=F KetDBF=T FulRan=T
         wScrn=  0.000000 ICntrl=     500 IOpCl=  0 I1Cent=   200000004 NGrid=           0
         NMat0=    1 NMatS0=      1 NMatT0=    0 NMatD0=    1 NMtDS0=    0 NMtDT0=    0
 Petite list used in FoFCou.
 Harris En= -881.105768994904    
 JPrj=0 DoOrth=F DoCkMO=F.
 Leave Link  401 at Sun Jan  8 05:27:20 2017, MaxMem= 13421772800 cpu:        23.7
 (Enter /share/apps//g09/l502.exe)
 Closed shell SCF:
 Using DIIS extrapolation, IDIIS=  1040.
 Integral symmetry usage will be decided dynamically.
 Keep R1 ints in memory in canonical form, NReq=7183787934.
 IVT=      797493 IEndB=      797493 NGot= 13421772800 MDV=  6302761722
 LenX=  6302761722 LenY=  6302506192
 Requested convergence on RMS density matrix=1.00D-08 within 128 cycles.
 Requested convergence on MAX density matrix=1.00D-06.
 Requested convergence on             energy=1.00D-06.
 No special actions if energy rises.
 FoFCou: FMM=F IPFlag=           0 FMFlag=           0 FMFlg1=           0
         NFxFlg=           0 DoJE=F BraDBF=F KetDBF=F FulRan=T
         wScrn=  0.000000 ICntrl=     600 IOpCl=  0 I1Cent=           0 NGrid=           0
         NMat0=    1 NMatS0= 119316 NMatT0=    0 NMatD0=    1 NMtDS0=    0 NMtDT0=    0
 Symmetry not used in FoFCou.

 Cycle   1  Pass 1  IDiag  1:
 E= -880.655666796245    
 DIIS: error= 1.82D-02 at cycle   1 NSaved=   1.
 NSaved= 1 IEnMin= 1 EnMin= -880.655666796245     IErMin= 1 ErrMin= 1.82D-02
 ErrMax= 1.82D-02  0.00D+00 EMaxC= 1.00D-01 BMatC= 3.69D-01 BMatP= 3.69D-01
 IDIUse=3 WtCom= 8.18D-01 WtEn= 1.82D-01
 Coeff-Com:  0.100D+01
 Coeff-En:   0.100D+01
 Coeff:      0.100D+01
 Gap=     0.122 Goal=   None    Shift=    0.000
 GapD=    0.122 DampG=1.000 DampE=0.500 DampFc=0.5000 IDamp=-1.
 Damping current iteration by 5.00D-01
 RMSDP=1.10D-02 MaxDP=1.06D+00              OVMax= 1.26D-01

 Cycle   2  Pass 1  IDiag  1:
 E= -880.781040081512     Delta-E=       -0.125373285267 Rises=F Damp=T
 DIIS: error= 3.58D-03 at cycle   2 NSaved=   2.
 NSaved= 2 IEnMin= 2 EnMin= -880.781040081512     IErMin= 2 ErrMin= 3.58D-03
 ErrMax= 3.58D-03  0.00D+00 EMaxC= 1.00D-01 BMatC= 2.83D-02 BMatP= 3.69D-01
 IDIUse=3 WtCom= 9.64D-01 WtEn= 3.58D-02
 Coeff-Com: -0.163D-01 0.102D+01
 Coeff-En:   0.337D-01 0.966D+00
 Coeff:     -0.146D-01 0.101D+01
 Gap=     0.232 Goal=   None    Shift=    0.000
 RMSDP=5.76D-03 MaxDP=9.03D-01 DE=-1.25D-01 OVMax= 8.72D-02

 Cycle   3  Pass 1  IDiag  1:
 E= -880.913956966321     Delta-E=       -0.132916884810 Rises=F Damp=F
 DIIS: error= 4.21D-03 at cycle   3 NSaved=   3.
 NSaved= 3 IEnMin= 3 EnMin= -880.913956966321     IErMin= 2 ErrMin= 3.58D-03
 ErrMax= 4.21D-03  0.00D+00 EMaxC= 1.00D-01 BMatC= 1.89D-02 BMatP= 2.83D-02
 IDIUse=3 WtCom= 9.58D-01 WtEn= 4.21D-02
 Coeff-Com: -0.930D-01 0.470D+00 0.623D+00
 Coeff-En:   0.000D+00 0.000D+00 0.100D+01
 Coeff:     -0.891D-01 0.450D+00 0.639D+00
 Gap=     0.204 Goal=   None    Shift=    0.000
 RMSDP=1.27D-03 MaxDP=1.00D-01 DE=-1.33D-01 OVMax= 1.82D-02

 Cycle   4  Pass 1  IDiag  1:
 E= -880.925405539976     Delta-E=       -0.011448573655 Rises=F Damp=F
 DIIS: error= 1.89D-03 at cycle   4 NSaved=   4.
 NSaved= 4 IEnMin= 4 EnMin= -880.925405539976     IErMin= 4 ErrMin= 1.89D-03
 ErrMax= 1.89D-03  0.00D+00 EMaxC= 1.00D-01 BMatC= 3.60D-03 BMatP= 1.89D-02
 IDIUse=3 WtCom= 9.81D-01 WtEn= 1.89D-02
 Coeff-Com: -0.463D-01 0.149D+00 0.356D+00 0.540D+00
 Coeff-En:   0.000D+00 0.000D+00 0.126D+00 0.874D+00
 Coeff:     -0.455D-01 0.147D+00 0.352D+00 0.547D+00
 Gap=     0.206 Goal=   None    Shift=    0.000
 RMSDP=1.04D-03 MaxDP=1.86D-01 DE=-1.14D-02 OVMax= 6.91D-03

 Cycle   5  Pass 1  IDiag  1:
 E= -880.928027160517     Delta-E=       -0.002621620541 Rises=F Damp=F
 DIIS: error= 3.13D-04 at cycle   5 NSaved=   5.
 NSaved= 5 IEnMin= 5 EnMin= -880.928027160517     IErMin= 5 ErrMin= 3.13D-04
 ErrMax= 3.13D-04  0.00D+00 EMaxC= 1.00D-01 BMatC= 1.33D-04 BMatP= 3.60D-03
 IDIUse=3 WtCom= 9.97D-01 WtEn= 3.13D-03
 Coeff-Com: -0.140D-01 0.324D-01 0.113D+00 0.242D+00 0.627D+00
 Coeff-En:   0.000D+00 0.000D+00 0.000D+00 0.000D+00 0.100D+01
 Coeff:     -0.140D-01 0.323D-01 0.112D+00 0.241D+00 0.628D+00
 Gap=     0.208 Goal=   None    Shift=    0.000
 RMSDP=1.91D-04 MaxDP=2.29D-02 DE=-2.62D-03 OVMax= 2.06D-03

 Cycle   6  Pass 1  IDiag  1:
 E= -880.928100519631     Delta-E=       -0.000073359114 Rises=F Damp=F
 DIIS: error= 2.06D-04 at cycle   6 NSaved=   6.
 NSaved= 6 IEnMin= 6 EnMin= -880.928100519631     IErMin= 6 ErrMin= 2.06D-04
 ErrMax= 2.06D-04  0.00D+00 EMaxC= 1.00D-01 BMatC= 3.29D-05 BMatP= 1.33D-04
 IDIUse=3 WtCom= 9.98D-01 WtEn= 2.06D-03
 Coeff-Com: -0.598D-02 0.108D-01 0.486D-01 0.120D+00 0.408D+00 0.419D+00
 Coeff-En:   0.000D+00 0.000D+00 0.000D+00 0.000D+00 0.164D+00 0.836D+00
 Coeff:     -0.597D-02 0.108D-01 0.485D-01 0.119D+00 0.407D+00 0.420D+00
 Gap=     0.208 Goal=   None    Shift=    0.000
 RMSDP=7.86D-05 MaxDP=7.40D-03 DE=-7.34D-05 OVMax= 9.53D-04

 Cycle   7  Pass 1  IDiag  1:
 E= -880.928123626701     Delta-E=       -0.000023107070 Rises=F Damp=F
 DIIS: error= 3.64D-05 at cycle   7 NSaved=   7.
 NSaved= 7 IEnMin= 7 EnMin= -880.928123626701     IErMin= 7 ErrMin= 3.64D-05
 ErrMax= 3.64D-05  0.00D+00 EMaxC= 1.00D-01 BMatC= 1.26D-06 BMatP= 3.29D-05
 IDIUse=1 WtCom= 1.00D+00 WtEn= 0.00D+00
 Coeff-Com: -0.195D-02 0.298D-02 0.160D-01 0.434D-01 0.167D+00 0.226D+00
 Coeff-Com:  0.547D+00
 Coeff:     -0.195D-02 0.298D-02 0.160D-01 0.434D-01 0.167D+00 0.226D+00
 Coeff:      0.547D+00
 Gap=     0.208 Goal=   None    Shift=    0.000
 RMSDP=1.86D-05 MaxDP=2.59D-03 DE=-2.31D-05 OVMax= 2.14D-04

 Cycle   8  Pass 1  IDiag  1:
 E= -880.928124587317     Delta-E=       -0.000000960616 Rises=F Damp=F
 DIIS: error= 1.18D-05 at cycle   8 NSaved=   8.
 NSaved= 8 IEnMin= 8 EnMin= -880.928124587317     IErMin= 8 ErrMin= 1.18D-05
 ErrMax= 1.18D-05  0.00D+00 EMaxC= 1.00D-01 BMatC= 1.11D-07 BMatP= 1.26D-06
 IDIUse=1 WtCom= 1.00D+00 WtEn= 0.00D+00
 Coeff-Com: -0.531D-04-0.148D-03 0.286D-03 0.313D-02 0.187D-01 0.424D-01
 Coeff-Com:  0.255D+00 0.681D+00
 Coeff:     -0.531D-04-0.148D-03 0.286D-03 0.313D-02 0.187D-01 0.424D-01
 Coeff:      0.255D+00 0.681D+00
 Gap=     0.208 Goal=   None    Shift=    0.000
 RMSDP=9.88D-06 MaxDP=1.57D-03 DE=-9.61D-07 OVMax= 5.66D-05

 Cycle   9  Pass 1  IDiag  1:
 E= -880.928124666448     Delta-E=       -0.000000079131 Rises=F Damp=F
 DIIS: error= 5.51D-06 at cycle   9 NSaved=   9.
 NSaved= 9 IEnMin= 9 EnMin= -880.928124666448     IErMin= 9 ErrMin= 5.51D-06
 ErrMax= 5.51D-06  0.00D+00 EMaxC= 1.00D-01 BMatC= 1.80D-08 BMatP= 1.11D-07
 IDIUse=1 WtCom= 1.00D+00 WtEn= 0.00D+00
 Coeff-Com:  0.763D-04-0.239D-03-0.810D-03-0.887D-03-0.640D-03 0.776D-02
 Coeff-Com:  0.101D+00 0.372D+00 0.521D+00
 Coeff:      0.763D-04-0.239D-03-0.810D-03-0.887D-03-0.640D-03 0.776D-02
 Coeff:      0.101D+00 0.372D+00 0.521D+00
 Gap=     0.208 Goal=   None    Shift=    0.000
 RMSDP=1.66D-06 MaxDP=2.64D-04 DE=-7.91D-08 OVMax= 2.33D-05

 Cycle  10  Pass 1  IDiag  1:
 E= -880.928124678577     Delta-E=       -0.000000012128 Rises=F Damp=F
 DIIS: error= 1.16D-06 at cycle  10 NSaved=  10.
 NSaved=10 IEnMin=10 EnMin= -880.928124678577     IErMin=10 ErrMin= 1.16D-06
 ErrMax= 1.16D-06  0.00D+00 EMaxC= 1.00D-01 BMatC= 1.37D-09 BMatP= 1.80D-08
 IDIUse=1 WtCom= 1.00D+00 WtEn= 0.00D+00
 Coeff-Com:  0.479D-04-0.103D-03-0.492D-03-0.925D-03-0.315D-02-0.222D-02
 Coeff-Com:  0.167D-01 0.932D-01 0.254D+00 0.643D+00
 Coeff:      0.479D-04-0.103D-03-0.492D-03-0.925D-03-0.315D-02-0.222D-02
 Coeff:      0.167D-01 0.932D-01 0.254D+00 0.643D+00
 Gap=     0.208 Goal=   None    Shift=    0.000
 RMSDP=8.70D-07 MaxDP=1.11D-04 DE=-1.21D-08 OVMax= 5.81D-06

 Cycle  11  Pass 1  IDiag  1:
 E= -880.928124679576     Delta-E=       -0.000000001000 Rises=F Damp=F
 DIIS: error= 2.15D-07 at cycle  11 NSaved=  11.
 NSaved=11 IEnMin=11 EnMin= -880.928124679576     IErMin=11 ErrMin= 2.15D-07
 ErrMax= 2.15D-07  0.00D+00 EMaxC= 1.00D-01 BMatC= 5.46D-11 BMatP= 1.37D-09
 IDIUse=1 WtCom= 1.00D+00 WtEn= 0.00D+00
 Coeff-Com:  0.143D-04-0.284D-04-0.158D-03-0.318D-03-0.120D-02-0.120D-02
 Coeff-Com:  0.186D-02 0.184D-01 0.719D-01 0.254D+00 0.656D+00
 Coeff:      0.143D-04-0.284D-04-0.158D-03-0.318D-03-0.120D-02-0.120D-02
 Coeff:      0.186D-02 0.184D-01 0.719D-01 0.254D+00 0.656D+00
 Gap=     0.208 Goal=   None    Shift=    0.000
 RMSDP=1.11D-07 MaxDP=1.02D-05 DE=-1.00D-09 OVMax= 1.48D-06

 Cycle  12  Pass 1  IDiag  1:
 E= -880.928124679622     Delta-E=       -0.000000000045 Rises=F Damp=F
 DIIS: error= 1.17D-07 at cycle  12 NSaved=  12.
 NSaved=12 IEnMin=12 EnMin= -880.928124679622     IErMin=12 ErrMin= 1.17D-07
 ErrMax= 1.17D-07  0.00D+00 EMaxC= 1.00D-01 BMatC= 1.13D-11 BMatP= 5.46D-11
 IDIUse=1 WtCom= 1.00D+00 WtEn= 0.00D+00
 Coeff-Com:  0.946D-06-0.684D-06-0.190D-04-0.449D-04-0.210D-03-0.308D-03
 Coeff-Com: -0.124D-02-0.253D-02 0.469D-02 0.525D-01 0.347D+00 0.600D+00
 Coeff:      0.946D-06-0.684D-06-0.190D-04-0.449D-04-0.210D-03-0.308D-03
 Coeff:     -0.124D-02-0.253D-02 0.469D-02 0.525D-01 0.347D+00 0.600D+00
 Gap=     0.208 Goal=   None    Shift=    0.000
 RMSDP=3.36D-08 MaxDP=2.80D-06 DE=-4.55D-11 OVMax= 7.95D-07

 Cycle  13  Pass 1  IDiag  1:
 E= -880.928124679620     Delta-E=        0.000000000001 Rises=F Damp=F
 DIIS: error= 2.83D-08 at cycle  13 NSaved=  13.
 NSaved=13 IEnMin=12 EnMin= -880.928124679622     IErMin=13 ErrMin= 2.83D-08
 ErrMax= 2.83D-08  0.00D+00 EMaxC= 1.00D-01 BMatC= 5.77D-13 BMatP= 1.13D-11
 IDIUse=1 WtCom= 1.00D+00 WtEn= 0.00D+00
 Coeff-Com: -0.473D-06 0.144D-05 0.160D-05 0.437D-06-0.118D-04-0.411D-04
 Coeff-Com: -0.675D-03-0.218D-02-0.262D-02 0.472D-02 0.103D+00 0.260D+00
 Coeff-Com:  0.637D+00
 Coeff:     -0.473D-06 0.144D-05 0.160D-05 0.437D-06-0.118D-04-0.411D-04
 Coeff:     -0.675D-03-0.218D-02-0.262D-02 0.472D-02 0.103D+00 0.260D+00
 Coeff:      0.637D+00
 Gap=     0.208 Goal=   None    Shift=    0.000
 RMSDP=2.21D-08 MaxDP=3.92D-06 DE= 1.36D-12 OVMax= 1.49D-07

 Cycle  14  Pass 1  IDiag  1:
 E= -880.928124679606     Delta-E=        0.000000000014 Rises=F Damp=F
 DIIS: error= 1.07D-08 at cycle  14 NSaved=  14.
 NSaved=14 IEnMin=12 EnMin= -880.928124679622     IErMin=14 ErrMin= 1.07D-08
 ErrMax= 1.07D-08  0.00D+00 EMaxC= 1.00D-01 BMatC= 9.24D-14 BMatP= 5.77D-13
 IDIUse=1 WtCom= 1.00D+00 WtEn= 0.00D+00
 Coeff-Com: -0.299D-06 0.736D-06 0.243D-05 0.388D-05 0.131D-04 0.927D-05
 Coeff-Com: -0.242D-03-0.879D-03-0.182D-02-0.307D-02 0.181D-01 0.755D-01
 Coeff-Com:  0.339D+00 0.573D+00
 Coeff:     -0.299D-06 0.736D-06 0.243D-05 0.388D-05 0.131D-04 0.927D-05
 Coeff:     -0.242D-03-0.879D-03-0.182D-02-0.307D-02 0.181D-01 0.755D-01
 Coeff:      0.339D+00 0.573D+00
 Gap=     0.208 Goal=   None    Shift=    0.000
 RMSDP=1.71D-08 MaxDP=3.39D-06 DE= 1.41D-11 OVMax= 5.52D-08

 Cycle  15  Pass 1  IDiag  1:
 E= -880.928124679638     Delta-E=       -0.000000000032 Rises=F Damp=F
 DIIS: error= 2.31D-09 at cycle  15 NSaved=  15.
 NSaved=15 IEnMin=15 EnMin= -880.928124679638     IErMin=15 ErrMin= 2.31D-09
 ErrMax= 2.31D-09  0.00D+00 EMaxC= 1.00D-01 BMatC= 4.20D-15 BMatP= 9.24D-14
 IDIUse=1 WtCom= 1.00D+00 WtEn= 0.00D+00
 Coeff-Com: -0.801D-07 0.184D-06 0.841D-06 0.146D-05 0.600D-05 0.682D-05
 Coeff-Com: -0.446D-04-0.169D-03-0.496D-03-0.159D-02-0.932D-03 0.966D-02
 Coeff-Com:  0.834D-01 0.238D+00 0.673D+00
 Coeff:     -0.801D-07 0.184D-06 0.841D-06 0.146D-05 0.600D-05 0.682D-05
 Coeff:     -0.446D-04-0.169D-03-0.496D-03-0.159D-02-0.932D-03 0.966D-02
 Coeff:      0.834D-01 0.238D+00 0.673D+00
 Gap=     0.208 Goal=   None    Shift=    0.000
 RMSDP=1.49D-08 MaxDP=3.32D-06 DE=-3.23D-11 OVMax= 1.38D-08

 Cycle  16  Pass 1  IDiag  1:
 E= -880.928124679634     Delta-E=        0.000000000005 Rises=F Damp=F
 DIIS: error= 5.93D-10 at cycle  16 NSaved=  16.
 NSaved=16 IEnMin=15 EnMin= -880.928124679638     IErMin=16 ErrMin= 5.93D-10
 ErrMax= 5.93D-10  0.00D+00 EMaxC= 1.00D-01 BMatC= 3.99D-16 BMatP= 4.20D-15
 IDIUse=1 WtCom= 1.00D+00 WtEn= 0.00D+00
 Large coefficients: NSaved= 16 BigCof=    0.00 CofMax=   10.00 Det=-3.39D-15
 Inversion failed.  Reducing to 15 matrices.
 Coeff-Com: -0.133D-09 0.882D-07 0.127D-06 0.937D-06 0.174D-05-0.135D-05
 Coeff-Com: -0.792D-06-0.611D-04-0.422D-03-0.175D-02-0.137D-02 0.132D-01
 Coeff-Com:  0.659D-01 0.302D+00 0.622D+00
 Coeff:     -0.133D-09 0.882D-07 0.127D-06 0.937D-06 0.174D-05-0.135D-05
 Coeff:     -0.792D-06-0.611D-04-0.422D-03-0.175D-02-0.137D-02 0.132D-01
 Coeff:      0.659D-01 0.302D+00 0.622D+00
 Gap=     0.208 Goal=   None    Shift=    0.000
 RMSDP=7.12D-09 MaxDP=1.11D-06 DE= 4.55D-12 OVMax= 3.21D-09

 Cycle  17  Pass 1  IDiag  1:
 E= -880.928124679617     Delta-E=        0.000000000017 Rises=F Damp=F
 DIIS: error= 2.10D-10 at cycle  17 NSaved=  16.
 NSaved=16 IEnMin=14 EnMin= -880.928124679638     IErMin=16 ErrMin= 2.10D-10
 ErrMax= 2.10D-10  0.00D+00 EMaxC= 1.00D-01 BMatC= 4.79D-17 BMatP= 3.99D-16
 IDIUse=1 WtCom= 1.00D+00 WtEn= 0.00D+00
 Large coefficients: NSaved= 16 BigCof=    0.00 CofMax=   10.00 Det=-4.49D-16
 Inversion failed.  Reducing to 15 matrices.
 Coeff-Com:  0.261D-07 0.507D-07 0.227D-06 0.499D-06 0.271D-05 0.890D-05
 Coeff-Com:  0.124D-05-0.680D-04-0.667D-03-0.141D-02-0.214D-02 0.529D-02
 Coeff-Com:  0.666D-01 0.293D+00 0.640D+00
 Coeff:      0.261D-07 0.507D-07 0.227D-06 0.499D-06 0.271D-05 0.890D-05
 Coeff:      0.124D-05-0.680D-04-0.667D-03-0.141D-02-0.214D-02 0.529D-02
 Coeff:      0.666D-01 0.293D+00 0.640D+00
 Gap=     0.208 Goal=   None    Shift=    0.000
 RMSDP=5.22D-09 MaxDP=8.40D-07 DE= 1.73D-11 OVMax= 1.22D-09

 SCF Done:  E(RPBE1PBE) =  -880.928124680     A.U. after   17 cycles
            NFock= 17  Conv=0.52D-08     -V/T= 2.0043
 KE= 8.771259650857D+02 PE=-4.942830612728D+03 EE= 1.734837376111D+03
 Leave Link  502 at Sun Jan  8 05:31:15 2017, MaxMem= 13421772800 cpu:      1040.0
 (Enter /share/apps//g09/l601.exe)
 Copying SCF densities to generalized density rwf, IOpCl= 0 IROHF=0.

 **********************************************************************

            Population analysis using the SCF density.

 **********************************************************************

 Orbital symmetries:
       Occupied  (A) (A) (A) (A) (A) (A) (A) (A) (A) (A) (A) (A)
                 (A) (A) (A) (A) (A) (A) (A) (A) (A) (A) (A) (A)
                 (A) (A) (A) (A) (A) (A) (A) (A) (A) (A) (A) (A)
                 (A) (A) (A) (A) (A) (A) (A) (A) (A) (A) (A) (A)
                 (A) (A) (A) (A) (A) (A) (A) (A) (A) (A) (A) (A)
                 (A) (A) (A) (A) (A) (A)
       Virtual   (A) (A) (A) (A) (A) (A) (A) (A) (A) (A) (A) (A)
                 (A) (A) (A) (A) (A) (A) (A) (A) (A) (A) (A) (A)
                 (A) (A) (A) (A) (A) (A) (A) (A) (A) (A) (A) (A)
                 (A) (A) (A) (A) (A) (A) (A) (A) (A) (A) (A) (A)
                 (A) (A) (A) (A) (A) (A) (A) (A) (A) (A) (A) (A)
                 (A) (A) (A) (A) (A) (A) (A) (A) (A) (A) (A) (A)
                 (A) (A) (A) (A) (A) (A) (A) (A) (A) (A) (A) (A)
                 (A) (A) (A) (A) (A) (A) (A) (A) (A) (A) (A) (A)
                 (A) (A) (A) (A) (A) (A) (A) (A) (A) (A) (A) (A)
                 (A) (A) (A) (A) (A) (A) (A) (A) (A) (A) (A) (A)
                 (A) (A) (A) (A) (A) (A) (A) (A) (A) (A) (A) (A)
                 (A) (A) (A) (A) (A) (A) (A) (A) (A) (A) (A) (A)
                 (A) (A) (A) (A) (A) (A) (A) (A) (A) (A) (A) (A)
                 (A) (A) (A) (A) (A) (A) (A) (A) (A) (A) (A) (A)
                 (A) (A) (A) (A) (A) (A) (A) (A) (A) (A) (A) (A)
                 (A) (A) (A) (A) (A) (A) (A) (A) (A) (A) (A) (A)
                 (A) (A) (A) (A) (A) (A) (A) (A) (A) (A) (A) (A)
                 (A) (A) (A) (A) (A) (A) (A) (A) (A) (A) (A) (A)
                 (A) (A) (A) (A) (A) (A) (A) (A) (A) (A) (A) (A)
                 (A) (A) (A) (A) (A) (A) (A) (A) (A) (A) (A) (A)
                 (A) (A) (A) (A) (A) (A) (A) (A) (A) (A) (A) (A)
                 (A) (A) (A) (A) (A) (A) (A) (A) (A) (A) (A) (A)
                 (A) (A) (A) (A) (A) (A) (A) (A) (A) (A) (A) (A)
                 (A) (A) (A) (A) (A) (A) (A) (A) (A) (A) (A) (A)
                 (A) (A) (A) (A) (A) (A) (A) (A) (A) (A) (A) (A)
                 (A) (A) (A) (A) (A) (A) (A) (A) (A) (A) (A) (A)
                 (A) (A) (A) (A) (A) (A) (A) (A) (A) (A) (A) (A)
                 (A) (A) (A) (A) (A) (A) (A) (A) (A) (A) (A) (A)
                 (A) (A) (A) (A) (A) (A) (A) (A) (A) (A) (A) (A)
                 (A) (A) (A) (A) (A) (A) (A) (A) (A) (A) (A) (A)
                 (A) (A) (A) (A) (A) (A) (A) (A) (A) (A) (A) (A)
                 (A) (A) (A) (A) (A) (A) (A) (A) (A) (A) (A) (A)
                 (A) (A) (A) (A) (A) (A) (A) (A) (A) (A) (A) (A)
                 (A) (A) (A) (A) (A) (A) (A) (A) (A) (A) (A) (A)
                 (A) (A) (A) (A) (A) (A) (A) (A) (A) (A) (A) (A)
                 (A) (A)
 The electronic state is 1-A.
 Alpha  occ. eigenvalues --  -19.44820 -19.43767 -19.39962 -19.36254 -19.35481
 Alpha  occ. eigenvalues --  -19.33836 -10.56704 -10.50819 -10.46841 -10.45126
 Alpha  occ. eigenvalues --  -10.44402 -10.43827 -10.41126 -10.39493 -10.38647
 Alpha  occ. eigenvalues --  -10.38486 -10.37508  -1.34858  -1.27770  -1.25616
 Alpha  occ. eigenvalues --   -1.22009  -1.20598  -1.19242  -1.00953  -0.97949
 Alpha  occ. eigenvalues --   -0.94460  -0.89573  -0.87617  -0.85176  -0.82499
 Alpha  occ. eigenvalues --   -0.81272  -0.78307  -0.77388  -0.76322  -0.71940
 Alpha  occ. eigenvalues --   -0.70955  -0.67662  -0.66781  -0.66303  -0.65464
 Alpha  occ. eigenvalues --   -0.63816  -0.63477  -0.62391  -0.61740  -0.60770
 Alpha  occ. eigenvalues --   -0.60525  -0.59640  -0.58391  -0.57705  -0.57131
 Alpha  occ. eigenvalues --   -0.56812  -0.55729  -0.55148  -0.54324  -0.53639
 Alpha  occ. eigenvalues --   -0.52979  -0.52405  -0.51864  -0.48993  -0.48448
 Alpha  occ. eigenvalues --   -0.47337  -0.46369  -0.46350  -0.43066  -0.41457
 Alpha  occ. eigenvalues --   -0.40221
 Alpha virt. eigenvalues --   -0.19435  -0.11911  -0.11252  -0.10023  -0.08705
 Alpha virt. eigenvalues --   -0.08638  -0.08186  -0.07058  -0.06677  -0.06470
 Alpha virt. eigenvalues --   -0.06216  -0.05979  -0.05194  -0.04756  -0.04317
 Alpha virt. eigenvalues --   -0.03899  -0.03546  -0.03278  -0.03055  -0.02403
 Alpha virt. eigenvalues --   -0.02361  -0.02015  -0.01407  -0.01073  -0.00239
 Alpha virt. eigenvalues --    0.00270   0.00340   0.00824   0.01106   0.01735
 Alpha virt. eigenvalues --    0.01871   0.02151   0.02511   0.02857   0.03262
 Alpha virt. eigenvalues --    0.04157   0.04218   0.04587   0.05055   0.05329
 Alpha virt. eigenvalues --    0.06087   0.06205   0.06595   0.06813   0.06927
 Alpha virt. eigenvalues --    0.07261   0.07862   0.08093   0.08222   0.08883
 Alpha virt. eigenvalues --    0.09295   0.09422   0.09879   0.10627   0.10874
 Alpha virt. eigenvalues --    0.11369   0.11587   0.12084   0.12281   0.12908
 Alpha virt. eigenvalues --    0.13047   0.13189   0.13558   0.13988   0.14395
 Alpha virt. eigenvalues --    0.15100   0.15187   0.15631   0.16020   0.16628
 Alpha virt. eigenvalues --    0.16765   0.17267   0.17617   0.17991   0.18628
 Alpha virt. eigenvalues --    0.19278   0.19795   0.20634   0.20863   0.21087
 Alpha virt. eigenvalues --    0.21419   0.22198   0.22878   0.23031   0.23420
 Alpha virt. eigenvalues --    0.24104   0.24541   0.25084   0.25508   0.25689
 Alpha virt. eigenvalues --    0.26272   0.26787   0.27371   0.27625   0.28339
 Alpha virt. eigenvalues --    0.29013   0.30127   0.30434   0.31574   0.31689
 Alpha virt. eigenvalues --    0.32078   0.32855   0.33537   0.34108   0.35359
 Alpha virt. eigenvalues --    0.35705   0.36530   0.36899   0.37942   0.38258
 Alpha virt. eigenvalues --    0.39580   0.40306   0.40734   0.41215   0.42563
 Alpha virt. eigenvalues --    0.43142   0.44814   0.44971   0.45480   0.46462
 Alpha virt. eigenvalues --    0.47043   0.47428   0.48140   0.48566   0.50049
 Alpha virt. eigenvalues --    0.50163   0.51083   0.52045   0.52637   0.53429
 Alpha virt. eigenvalues --    0.53777   0.54860   0.55014   0.55666   0.55882
 Alpha virt. eigenvalues --    0.57046   0.57297   0.57492   0.58369   0.58981
 Alpha virt. eigenvalues --    0.59150   0.59874   0.60711   0.61306   0.61532
 Alpha virt. eigenvalues --    0.62276   0.62498   0.62874   0.63916   0.64725
 Alpha virt. eigenvalues --    0.65202   0.66310   0.67781   0.68438   0.69381
 Alpha virt. eigenvalues --    0.70774   0.75169   0.75844   0.78938   0.81308
 Alpha virt. eigenvalues --    0.81869   0.85627   0.87132   0.89285   0.90705
 Alpha virt. eigenvalues --    0.90876   0.92100   0.93753   0.94383   0.96352
 Alpha virt. eigenvalues --    0.97429   0.98012   0.99418   1.00245   1.01030
 Alpha virt. eigenvalues --    1.03153   1.03609   1.04573   1.05329   1.07721
 Alpha virt. eigenvalues --    1.08477   1.10186   1.11151   1.12416   1.14280
 Alpha virt. eigenvalues --    1.15199   1.15880   1.18072   1.18196   1.20047
 Alpha virt. eigenvalues --    1.21990   1.22921   1.24045   1.25682   1.26624
 Alpha virt. eigenvalues --    1.27805   1.28621   1.29371   1.29821   1.31217
 Alpha virt. eigenvalues --    1.32616   1.33565   1.34130   1.34383   1.34981
 Alpha virt. eigenvalues --    1.35183   1.35625   1.38766   1.40182   1.41195
 Alpha virt. eigenvalues --    1.42231   1.42260   1.43455   1.44300   1.45045
 Alpha virt. eigenvalues --    1.45291   1.46089   1.46571   1.47146   1.48096
 Alpha virt. eigenvalues --    1.48880   1.49071   1.49414   1.50102   1.51321
 Alpha virt. eigenvalues --    1.52309   1.52546   1.53279   1.54548   1.55935
 Alpha virt. eigenvalues --    1.56598   1.57067   1.57320   1.57622   1.59457
 Alpha virt. eigenvalues --    1.60407   1.60620   1.61115   1.61282   1.63544
 Alpha virt. eigenvalues --    1.64308   1.64910   1.66197   1.67488   1.69321
 Alpha virt. eigenvalues --    1.70915   1.71758   1.72212   1.72805   1.74632
 Alpha virt. eigenvalues --    1.77062   1.78617   1.79395   1.80553   1.81424
 Alpha virt. eigenvalues --    1.82955   1.83557   1.84254   1.85798   1.87137
 Alpha virt. eigenvalues --    1.89151   1.91949   1.93109   1.94906   1.95934
 Alpha virt. eigenvalues --    1.96957   1.98152   1.99720   2.01449   2.02407
 Alpha virt. eigenvalues --    2.03737   2.04438   2.05355   2.06014   2.07696
 Alpha virt. eigenvalues --    2.08344   2.08878   2.11555   2.13680   2.13979
 Alpha virt. eigenvalues --    2.15156   2.16631   2.17797   2.20828   2.21550
 Alpha virt. eigenvalues --    2.22966   2.32425   2.33023   2.33146   2.33544
 Alpha virt. eigenvalues --    2.34967   2.37497   2.38306   2.39861   2.40444
 Alpha virt. eigenvalues --    2.41314   2.41616   2.41977   2.42199   2.43318
 Alpha virt. eigenvalues --    2.44202   2.44820   2.45463   2.47111   2.48003
 Alpha virt. eigenvalues --    2.48541   2.49533   2.50166   2.50990   2.51229
 Alpha virt. eigenvalues --    2.54841   2.56953   2.57038   2.59980   2.60086
 Alpha virt. eigenvalues --    2.61866   2.65782   2.68084   2.70032   2.71588
 Alpha virt. eigenvalues --    2.73395   2.73910   2.74769   2.76391   2.77713
 Alpha virt. eigenvalues --    2.79604   2.80545   2.80835   2.86165   2.86679
 Alpha virt. eigenvalues --    2.87897   2.89212   2.91847   2.92726   2.94150
 Alpha virt. eigenvalues --    2.95217   2.95556   2.97608   2.99062   2.99862
 Alpha virt. eigenvalues --    3.02069   3.04808   3.05619   3.06369   3.06955
 Alpha virt. eigenvalues --    3.08105   3.08995   3.10723   3.12333   3.13345
 Alpha virt. eigenvalues --    3.14381   3.15744   3.16909   3.19533   3.22155
 Alpha virt. eigenvalues --    3.22817   3.26974   3.30699   3.35496   3.39770
 Alpha virt. eigenvalues --    3.49458   3.62545   3.66578   3.67338   3.68025
 Alpha virt. eigenvalues --    3.68458   3.68676   3.70292   3.70928   3.71641
 Alpha virt. eigenvalues --    3.73575   3.77495   3.81588   3.87263   3.89440
 Alpha virt. eigenvalues --    3.93854   3.97484   3.98561   3.99107   4.04010
 Alpha virt. eigenvalues --    4.05094   4.07459   4.08996   4.10860   4.12801
 Alpha virt. eigenvalues --    4.20470   4.25788   4.95462   4.96891   5.01209
 Alpha virt. eigenvalues --    5.04151   5.06214   5.08623   5.14269   5.22555
 Alpha virt. eigenvalues --    5.29086   5.31576   5.33747   5.36898   5.48603
 Alpha virt. eigenvalues --    5.58170   5.59407   5.60590   5.64212   5.84243
 Alpha virt. eigenvalues --   23.69824  23.74692  23.75935  23.78069  23.80265
 Alpha virt. eigenvalues --   23.82551  23.87866  23.89326  23.89774  23.91149
 Alpha virt. eigenvalues --   23.91445  49.89653  49.91575  49.95317  49.97147
 Alpha virt. eigenvalues --   49.97891  50.01959
          Condensed to atoms (all electrons):
               1          2          3          4          5          6
     1  C    9.308375  -1.606555  -0.099962  -1.409912   0.187263   0.328062
     2  C   -1.606555  16.855925 -10.721149   3.895426  -0.620243  -1.403107
     3  C   -0.099962 -10.721149  25.383657 -14.415215   6.573918  -3.057175
     4  C   -1.409912   3.895426 -14.415215  26.663006 -12.762206   6.179966
     5  C    0.187263  -0.620243   6.573918 -12.762206  21.647303 -10.463115
     6  C    0.328062  -1.403107  -3.057175   6.179966 -10.463115  15.880431
     7  O   -0.218237   0.094382   0.074414  -0.070236  -0.025880   0.356474
     8  O    0.007051   0.025438   0.061505  -0.080709   0.036836  -0.022413
     9  O   -0.040251   0.143573  -0.428869   0.282912  -0.308091   0.239733
    10  O   -0.049373  -0.034846   0.143464  -0.024113   0.032369  -0.027880
    11  H    0.386592   0.031902  -0.072195   0.011188   0.000267   0.005378
    12  H    0.346480  -0.044303   0.061697   0.008481  -0.009541   0.001630
    13  H   -0.099751   0.159632   0.276363  -0.082285   0.017617   0.009971
    14  H   -0.005152   0.003942   0.404662  -0.029305   0.017777  -0.015109
    15  H    0.000203  -0.051881   0.082112   0.194307   0.071351  -0.022708
    16  H   -0.000682  -0.029820   0.024235  -0.059622   0.339224   0.082929
    17  H   -0.013939  -0.004136   0.041277  -0.044542   0.130695   0.205519
    18  O    0.005489  -0.026987   0.051836  -0.173350   0.356737  -0.103832
    19  C    0.001275  -0.100781  -0.007532  -0.025524   0.005705  -0.002006
    20  H    0.004370   0.023726  -0.003049  -0.000547   0.000371  -0.001138
    21  H    0.011458  -0.019138  -0.004633   0.000837  -0.001240   0.001582
    22  H   -0.011629   0.007779   0.002491  -0.000248   0.000389  -0.000017
    23  C   -0.018998   0.016454  -0.057288   0.103284  -0.198580  -0.143858
    24  H   -0.000761  -0.011260   0.004558   0.006328  -0.042463   0.040007
    25  H    0.003438   0.023314  -0.008547   0.045659  -0.066594  -0.023274
    26  H   -0.001277  -0.004529   0.001699  -0.008739   0.056956  -0.003457
    27  C   -0.033203  -0.249637   0.378777  -0.462271  -0.108215   0.110359
    28  H    0.003920   0.006339   0.078782  -0.082559  -0.020760  -0.003097
    29  H   -0.000706  -0.004446  -0.009026  -0.026872   0.044625  -0.002456
    30  H   -0.000025  -0.000379  -0.001430   0.021493   0.002954  -0.000967
    31  C   -0.272986   0.407129   0.072360  -0.910046   1.259575  -1.543942
    32  O    0.017763   0.282227  -0.156163  -0.061700   0.020211   0.074087
    33  C   -0.015241  -0.807743   1.277377  -0.437854   0.076652  -0.387605
    34  H    0.001464   0.003678  -0.004601   0.000085  -0.001322   0.007587
    35  H    0.001908  -0.013293   0.010579  -0.004679  -0.000154  -0.001160
    36  H   -0.000846   0.003902  -0.005573  -0.000733   0.003379  -0.014041
               7          8          9         10         11         12
     1  C   -0.218237   0.007051  -0.040251  -0.049373   0.386592   0.346480
     2  C    0.094382   0.025438   0.143573  -0.034846   0.031902  -0.044303
     3  C    0.074414   0.061505  -0.428869   0.143464  -0.072195   0.061697
     4  C   -0.070236  -0.080709   0.282912  -0.024113   0.011188   0.008481
     5  C   -0.025880   0.036836  -0.308091   0.032369   0.000267  -0.009541
     6  C    0.356474  -0.022413   0.239733  -0.027880   0.005378   0.001630
     7  O    7.758960  -0.002341   0.054960   0.010772   0.019832  -0.023126
     8  O   -0.002341   7.900156   0.066971   0.003722   0.000062   0.000021
     9  O    0.054960   0.066971   7.969195  -0.023790   0.006837  -0.002554
    10  O    0.010772   0.003722  -0.023790   8.263642  -0.053463  -0.042263
    11  H    0.019832   0.000062   0.006837  -0.053463   0.528170  -0.042980
    12  H   -0.023126   0.000021  -0.002554  -0.042263  -0.042980   0.511573
    13  H   -0.023762  -0.000413   0.004272   0.007266  -0.004833  -0.001292
    14  H    0.006390  -0.006930  -0.061205  -0.001714   0.004146  -0.000137
    15  H    0.000204  -0.028899   0.017240  -0.000129   0.000008   0.000020
    16  H    0.005273   0.001286   0.006785  -0.000084   0.000001   0.000005
    17  H   -0.056282  -0.001226  -0.007006   0.000585   0.000000  -0.000051
    18  O    0.011186   0.006112  -0.000429  -0.000055  -0.000120   0.000457
    19  C   -0.009325   0.000431  -0.002820   0.060005  -0.007147   0.001622
    20  H   -0.000145   0.000002  -0.000361  -0.056302  -0.000407  -0.000015
    21  H   -0.000900   0.000001  -0.000916  -0.060390  -0.003946   0.013423
    22  H    0.000141   0.000007   0.000700  -0.046022   0.010641  -0.003753
    23  C    0.001191  -0.013923   0.002556   0.000139   0.000072   0.000091
    24  H    0.000185   0.001189  -0.000010   0.000001   0.000000   0.000000
    25  H   -0.000139  -0.003876   0.000075  -0.000001  -0.000001   0.000000
    26  H   -0.000118   0.000001  -0.000018   0.000001  -0.000000   0.000000
    27  C    0.004397   0.166081   0.007966   0.001166  -0.000189   0.000179
    28  H   -0.000075  -0.037249  -0.006281   0.000022   0.000025  -0.000000
    29  H   -0.000026  -0.034006   0.001500  -0.000012  -0.000003  -0.000000
    30  H    0.000010  -0.056990   0.000184   0.000006  -0.000000   0.000000
    31  C   -0.004795   0.066140   0.340876   0.111402  -0.006767   0.004424
    32  O   -0.080519   0.024453  -0.134795   0.019893  -0.000151   0.000189
    33  C   -0.018104  -0.120897  -0.394894  -0.118784  -0.007933   0.001183
    34  H    0.000185   0.000044  -0.008359   0.000412   0.000000  -0.000002
    35  H   -0.000371  -0.000029  -0.008797   0.000429   0.000011   0.000011
    36  H    0.000006  -0.000411   0.017220  -0.000268   0.000000   0.000001
              13         14         15         16         17         18
     1  C   -0.099751  -0.005152   0.000203  -0.000682  -0.013939   0.005489
     2  C    0.159632   0.003942  -0.051881  -0.029820  -0.004136  -0.026987
     3  C    0.276363   0.404662   0.082112   0.024235   0.041277   0.051836
     4  C   -0.082285  -0.029305   0.194307  -0.059622  -0.044542  -0.173350
     5  C    0.017617   0.017777   0.071351   0.339224   0.130695   0.356737
     6  C    0.009971  -0.015109  -0.022708   0.082929   0.205519  -0.103832
     7  O   -0.023762   0.006390   0.000204   0.005273  -0.056282   0.011186
     8  O   -0.000413  -0.006930  -0.028899   0.001286  -0.001226   0.006112
     9  O    0.004272  -0.061205   0.017240   0.006785  -0.007006  -0.000429
    10  O    0.007266  -0.001714  -0.000129  -0.000084   0.000585  -0.000055
    11  H   -0.004833   0.004146   0.000008   0.000001   0.000000  -0.000120
    12  H   -0.001292  -0.000137   0.000020   0.000005  -0.000051   0.000457
    13  H    0.458022  -0.001565   0.002982  -0.000208   0.000396  -0.002084
    14  H   -0.001565   0.432769  -0.008126  -0.000049   0.000113  -0.000488
    15  H    0.002982  -0.008126   0.481928   0.000867  -0.000163   0.003484
    16  H   -0.000208  -0.000049   0.000867   0.431692  -0.006110  -0.038730
    17  H    0.000396   0.000113  -0.000163  -0.006110   0.446490   0.004255
    18  O   -0.002084  -0.000488   0.003484  -0.038730   0.004255   7.884572
    19  C   -0.001609  -0.000242   0.000032   0.000004  -0.000397  -0.000137
    20  H    0.000004   0.000003   0.000000  -0.000000   0.000002  -0.000000
    21  H   -0.000027   0.000009  -0.000000   0.000000   0.000000   0.000002
    22  H   -0.000040  -0.000016  -0.000000   0.000000   0.000000  -0.000001
    23  C   -0.002487  -0.000538   0.013167  -0.002833  -0.000712   0.133443
    24  H    0.000016  -0.000003  -0.000263   0.010713  -0.000368  -0.042632
    25  H   -0.000123   0.000036   0.005308  -0.002007   0.000073  -0.020233
    26  H   -0.000056  -0.000002  -0.000661  -0.000315  -0.000027  -0.071393
    27  C    0.004378  -0.002122   0.007558   0.007594  -0.000756   0.008638
    28  H   -0.000036   0.000867  -0.003888   0.000031   0.000004  -0.000120
    29  H    0.000066  -0.000706   0.014109  -0.000008  -0.000002   0.000168
    30  H    0.000004  -0.000102   0.000063  -0.000138  -0.000000   0.000021
    31  C    0.015186   0.021720   0.000559  -0.016224   0.058908  -0.006505
    32  O   -0.004900  -0.002678   0.001160   0.007934  -0.055973   0.010643
    33  C    0.007064   0.004316  -0.004195  -0.018101   0.022182   0.004781
    34  H   -0.000002   0.000083  -0.000005   0.000032  -0.000006  -0.000019
    35  H    0.000007   0.000013   0.000001  -0.000006   0.000010   0.000005
    36  H   -0.000001   0.000012  -0.000003   0.000007   0.000077   0.000013
              19         20         21         22         23         24
     1  C    0.001275   0.004370   0.011458  -0.011629  -0.018998  -0.000761
     2  C   -0.100781   0.023726  -0.019138   0.007779   0.016454  -0.011260
     3  C   -0.007532  -0.003049  -0.004633   0.002491  -0.057288   0.004558
     4  C   -0.025524  -0.000547   0.000837  -0.000248   0.103284   0.006328
     5  C    0.005705   0.000371  -0.001240   0.000389  -0.198580  -0.042463
     6  C   -0.002006  -0.001138   0.001582  -0.000017  -0.143858   0.040007
     7  O   -0.009325  -0.000145  -0.000900   0.000141   0.001191   0.000185
     8  O    0.000431   0.000002   0.000001   0.000007  -0.013923   0.001189
     9  O   -0.002820  -0.000361  -0.000916   0.000700   0.002556  -0.000010
    10  O    0.060005  -0.056302  -0.060390  -0.046022   0.000139   0.000001
    11  H   -0.007147  -0.000407  -0.003946   0.010641   0.000072   0.000000
    12  H    0.001622  -0.000015   0.013423  -0.003753   0.000091   0.000000
    13  H   -0.001609   0.000004  -0.000027  -0.000040  -0.002487   0.000016
    14  H   -0.000242   0.000003   0.000009  -0.000016  -0.000538  -0.000003
    15  H    0.000032   0.000000  -0.000000  -0.000000   0.013167  -0.000263
    16  H    0.000004  -0.000000   0.000000   0.000000  -0.002833   0.010713
    17  H   -0.000397   0.000002   0.000000   0.000000  -0.000712  -0.000368
[...]
 103,-0.00059118,-0.00067940,0.00043869,-0.00025128,-0.00008475,0.00038
 022,0.00249208,0.00146274,-0.00126521,-0.00005103,-0.00019997,-0.00008
 026,-0.00092366,-0.00028501,-0.00004609,-0.00072189,0.00002738,0.00026
 369,-0.00220213,0.00098473,0.00229965,-0.00039397,-0.00089680,-0.00178
 687,0.00009564,-0.00050946,-0.00078952,0.00025187,-0.00008259,-0.00036
 508,0.14014396,0.10441322,0.76794998,-0.00086013,0.00022242,0.00017031
 ,0.00027826,-0.00043663,0.00169369,-0.00200940,-0.00140062,0.00154315,
 0.00300339,-0.00019303,0.00252561,-0.00956117,0.03798023,0.00719639,-0
 .07143067,-0.00053991,-0.00664438,0.01388642,0.00085785,-0.00905593,-0
 .00206742,-0.00232205,-0.00283794,0.02693503,-0.00922495,-0.02604363,0
 .00087402,-0.00028510,-0.00019442,0.00019516,-0.00009473,-0.00007893,-
 0.00001439,-0.00004897,0.00009809,-0.00035194,-0.00033710,0.00007310,0
 .00057614,-0.00036761,-0.00003803,0.00049551,0.00039027,0.00024919,0.0
 0053184,0.00012235,0.00000581,0.00391409,-0.00258952,-0.00042329,-0.01
 259513,0.00018361,0.00261539,-0.00020533,0.00006600,0.00009737,0.00008
 654,-0.00002901,-0.00008722,0.00000821,0.00001384,-0.00005406,0.000038
 70,0.00000814,0.00001617,0.00211028,0.00235303,-0.00241920,-0.00003149
 ,-0.00024048,0.00019158,-0.00054677,-0.00013694,0.00003935,-0.00094940
 ,-0.00003747,0.00040296,-0.00028544,0.00109676,0.00117521,0.00004092,-
 0.00003532,-0.00038181,-0.00016535,-0.00025000,-0.00032248,-0.00012316
 ,-0.00009700,-0.00005895,-0.08988733,0.03703667,-0.00316445,0.13438158
 ,0.00291869,-0.00127319,-0.00001181,-0.00909064,-0.00383864,-0.0177463
 9,0.00752346,-0.01026510,0.00704757,-0.00266485,0.00054117,-0.00169976
 ,0.00297326,-0.02052876,-0.00700854,0.00983781,-0.00799208,-0.01247484
 ,-0.00082157,-0.06443264,0.05190842,-0.00031601,0.00239646,-0.00030726
 ,-0.01477229,0.03220699,-0.02945432,-0.00080397,0.00220264,0.00080674,
 -0.00069576,0.00026548,0.00076754,0.00032845,0.00077862,-0.00060379,0.
 00281187,0.00131795,0.00275253,-0.00085622,0.00178281,0.00022400,-0.00
 082884,0.00023918,0.00129000,0.00080440,0.00002391,-0.00012243,0.01800
 307,-0.02620319,-0.00296647,0.00887501,0.00241150,-0.00112212,0.000395
 77,0.00028937,-0.00020819,-0.00029546,-0.00001745,0.00013745,0.0001531
 3,0.00014406,-0.00009586,-0.00006194,-0.00007298,0.00007164,-0.0023990
 8,-0.00110418,0.00196928,0.00007070,0.00013994,-0.00018605,0.00081216,
 0.00007194,-0.00008320,0.00062446,0.00001666,-0.00018197,0.00030336,0.
 00030467,-0.00087454,0.00001455,-0.00010892,0.00051527,-0.00033766,-0.
 00000196,0.00010631,0.00020529,0.00010292,0.00006397,0.04882509,-0.224
 92346,-0.14177895,-0.08463864,0.34958363,0.00137493,-0.00104745,0.0006
 6236,-0.00663722,-0.00006725,-0.00484541,0.01579888,-0.01334242,0.0071
 1875,-0.00013343,0.00236794,-0.00398382,-0.00690391,-0.00866065,-0.001
 19835,-0.00857812,0.02650908,-0.08167305,-0.00911955,0.02380074,0.0166
 5558,0.00015147,0.00115225,0.00222406,-0.03320996,-0.02382258,-0.09316
 368,0.00115805,0.00174861,-0.00033191,-0.00040960,-0.00000019,0.000388
 43,0.00025854,0.00040289,-0.00027737,0.00123160,0.00128119,0.00040507,
 -0.00123054,0.00141009,0.00066015,-0.00051766,0.00006861,0.00180627,-0
 .00098490,-0.00084925,0.00100708,0.01602562,-0.02694699,-0.00015333,0.
 00771562,-0.00131946,0.00156284,-0.00077431,0.00003962,0.00065154,-0.0
 0011030,-0.00008865,0.00000181,0.00021616,0.00027038,-0.00015066,0.000
 03345,0.00000035,-0.00009592,-0.00189959,-0.00054673,0.00167968,-0.000
 04922,0.00016824,-0.00005806,0.00075448,0.00011652,-0.00006413,0.00044
 913,-0.00001570,-0.00015702,0.00065555,-0.00045857,-0.00156841,0.00006
 528,0.00029452,0.00090726,-0.00017199,0.00012669,0.00038532,-0.0000251
 5,0.00009455,0.00016756,0.00705379,-0.15723722,-0.33295194,0.01283011,
 0.19458419,0.49157027,-0.00029111,0.00005638,0.00020364,-0.00112433,0.
 00099738,0.00032800,0.00705586,-0.00101352,-0.00061083,0.00080503,-0.0
 0002990,-0.00021454,-0.00018279,-0.00151606,-0.00035286,0.00758483,-0.
 00183536,-0.00236845,-0.00063587,0.00196462,-0.00122961,-0.00040374,-0
 .00026081,-0.00017523,-0.01656338,0.02371874,-0.01821479,0.00076326,-0
 .00011565,-0.00036127,0.00002475,-0.00004610,-0.00000079,0.00011474,-0
 .00002431,-0.00004722,0.00024989,0.00031806,0.00001810,-0.00010447,0.0
 0015105,-0.00002262,-0.00008371,0.00008829,0.00000692,-0.00000707,0.00
 003447,-0.00002825,-0.00034604,0.00024635,0.00004516,0.00028128,0.0001
 5465,0.00015880,-0.00036913,0.00000408,0.00032143,0.00004809,-0.000018
 83,-0.00003575,0.00004398,0.00006040,-0.00004912,0.00002724,0.00002176
 ,-0.00004854,0.00017733,-0.00011109,-0.00002372,-0.00001683,-0.0000098
 5,0.00001570,0.00002072,-0.00000283,0.00001054,0.00001678,0.00001884,-
 0.00001562,0.00036120,0.00024057,0.00022532,0.00001174,0.00005611,0.00
 003331,-0.00006782,-0.00000558,-0.00003393,-0.00002047,-0.00000656,0.0
 0004850,-0.12772637,0.06508407,0.00172014,0.00503698,0.01061669,0.0072
 6955,0.51110175,0.00022038,0.00005197,-0.00002707,-0.00035249,0.000387
 05,-0.00032189,-0.00028805,0.00438815,-0.00168071,0.00061935,-0.001030
 56,0.00006417,-0.00030864,-0.00124851,-0.00014607,0.00214079,0.0074368
 9,-0.00109603,-0.00072007,-0.00020810,0.00075950,-0.00021874,0.0004218
 1,0.00010967,0.01672000,-0.00859567,0.00853153,-0.00018508,0.00000631,
 0.00000975,-0.00002322,0.00000985,0.00002539,-0.00002451,0.00002130,-0
 .00002284,0.00010130,-0.00003729,0.00011023,0.00010904,-0.00000373,-0.
 00004768,0.00010425,0.00010583,-0.00021235,-0.00005671,-0.00005280,-0.
 00002448,-0.00003477,0.00001408,0.00004705,0.00096699,-0.00021168,-0.0
 0018184,0.00016257,0.00004371,-0.00009450,-0.00001576,0.00000412,0.000
 01937,-0.00000326,-0.00001011,0.00000159,-0.00001849,-0.00000133,0.000
 01617,-0.00024801,-0.00012520,0.00025002,0.00000338,0.00002455,-0.0000
 2397,0.00004861,0.00001863,-0.00000086,0.00005820,-0.00000735,-0.00002
 943,0.00001989,0.00003208,0.00002935,-0.00005015,-0.00002131,-0.000019
 04,-0.00000971,-0.00001921,-0.00002501,0.00003448,0.00001667,0.0000052
 3,0.07281517,-0.19302247,0.00475233,0.01943515,-0.02687221,-0.01759685
 ,0.02297375,0.54972532,0.00017669,-0.00014555,0.00009848,-0.00129276,-
 0.00015539,-0.00168147,-0.00082091,-0.00397604,-0.00113786,-0.00054978
 ,0.00108968,-0.00101614,-0.00088151,-0.00117989,-0.00028104,-0.0017642
 5,0.00749636,-0.00375811,-0.00011848,-0.00210843,0.00370831,0.00010937
 ,-0.00031213,0.00030519,-0.03251715,0.03239562,-0.00570201,-0.00015903
 ,0.00022024,0.00013471,-0.00006231,0.00000359,0.00010728,0.00004857,0.
 00007450,-0.00004641,0.00038464,0.00021282,0.00014684,-0.00081033,0.00
 102389,0.00000568,-0.00019530,-0.00011858,0.00048774,0.00001884,0.0000
 1095,0.00011002,0.00076908,-0.00099248,-0.00001917,0.00105479,-0.00013
 200,-0.00004381,0.00000414,-0.00007915,-0.00000854,-0.00005187,-0.0000
 2724,0.00002017,-0.00000469,0.00002616,-0.00000001,-0.00000521,-0.0000
 0032,0.00000768,-0.00026180,-0.00012548,0.00019888,0.00000764,0.000018
 29,-0.00000880,0.00009647,0.00002579,-0.00000741,0.00007076,-0.0000032
 9,-0.00002820,-0.00003527,0.00000954,-0.00001503,-0.00001477,0.0000912
 0,-0.00004213,0.00004045,-0.00000651,-0.00001582,-0.00005149,-0.000009
 36,0.00003834,0.00003022,0.00583016,-0.07796908,0.02020834,-0.04145767
 ,-0.00885973,0.02995573,0.00739852,0.61589151,0.00002945,-0.00003483,-
 0.00002669,0.00013503,-0.00006210,0.00016504,-0.00027574,-0.00001795,0
 .00009639,0.00006251,0.00037453,-0.00000264,0.00019359,0.00036801,0.00
 009814,-0.00044813,-0.00115801,0.00083793,0.00014126,0.00017001,-0.000
 50198,0.00007923,-0.00041788,-0.00008802,0.00038404,-0.00054464,0.0009
 2231,-0.00004758,0.00004556,0.00005471,0.00000828,-0.00000193,-0.00001
 540,-0.00002462,0.00000602,0.00000836,-0.00003947,-0.00000660,-0.00002
 654,0.00001561,-0.00000929,-0.00002268,0.00000179,-0.00004940,0.000016
 48,-0.00000690,0.00000830,0.00001460,-0.00012765,0.00017310,0.00001593
 ,-0.00026601,-0.00001152,0.00001449,0.00004123,-0.00001846,-0.00002952
 ,-0.00002635,-0.00001671,-0.00001807,-0.00001040,0.00001721,0.00000466
 ,0.00000348,-0.00000894,0.00000873,0.00005019,0.00003662,-0.00004561,-
 0.00000011,-0.00000244,0.00000518,-0.00002542,-0.00000177,-0.00000216,
 -0.00001812,-0.00000215,0.00000550,-0.00006618,0.00006868,0.00017420,-
 0.00002979,0.00007939,-0.00016399,0.00004881,-0.00007196,-0.00006183,-
 0.00008757,-0.00002748,0.00002952,0.00755213,0.01607282,0.01390222,-0.
 00286444,0.00551580,0.00112972,-0.08404858,-0.07762429,-0.07157183,0.0
 9096088,0.00009606,-0.00006166,0.00001445,-0.00039170,0.00016329,-0.00
 034174,0.00083819,0.00001884,0.00016059,0.00000594,-0.00012996,-0.0001
 4212,-0.00020738,-0.00044972,-0.00010815,0.00033539,0.00203301,-0.0007
 8982,-0.00011509,-0.00026479,0.00061695,-0.00016503,0.00015781,0.00008
 559,-0.00024642,0.00191429,-0.00024211,-0.00001953,0.00011595,0.000035
 16,-0.00001488,-0.00000213,0.00001983,0.00000431,0.00002929,-0.0000079
 8,0.00008384,0.00007389,0.00003990,0.00001296,0.00001612,0.00000371,-0
 .00002362,0.00002558,0.00002001,-0.00001112,-0.00000757,0.00001148,0.0
 0011438,-0.00015546,0.00000241,0.00029551,-0.00002135,-0.00000703,-0.0
 0001802,-0.00002833,0.00002908,-0.00002681,-0.00000972,-0.00000021,0.0
 0000127,0.00001922,0.00000394,-0.00000355,-0.00000741,0.00000146,-0.00
 005570,-0.00004588,0.00005647,0.00000006,0.00000535,-0.00000186,0.0000
 2581,0.00000488,0.00000010,0.00002211,0.00000168,-0.00000856,0.0001341
 9,0.00002670,-0.00005740,0.00005633,0.00000075,0.00006897,-0.00003362,
 0.00001308,0.00002338,-0.00000759,0.00001337,0.00002326,-0.01461267,-0
 .01785896,-0.01591873,0.00346861,-0.00502436,-0.00087975,-0.07132361,-
 0.18561940,-0.11674208,0.07816405,0.19909156,-0.00006466,0.00003053,0.
 00006106,-0.00019438,0.00001882,-0.00003832,0.00070698,-0.00009608,0.0
 0013845,-0.00003051,-0.00012691,-0.00003401,0.00001076,-0.00006283,-0.
 00005536,-0.00019532,-0.00011921,0.00014035,-0.00004484,-0.00010485,0.
 00011219,-0.00014225,0.00011329,-0.00011682,-0.00185411,0.00187796,-0.
 00109639,0.00013197,-0.00005638,-0.00013195,-0.00000325,0.00000362,-0.
 00000625,0.00002157,-0.00000984,-0.00001282,0.00003717,0.00006546,0.00
 000820,-0.00003840,0.00000646,0.00000829,-0.00001404,0.00003445,0.0000
 0576,0.00001753,0.00000822,-0.00001271,0.00000527,-0.00000651,-0.00001
 513,-0.00005660,0.00008823,0.00001962,-0.00008762,0.00002686,0.0000703
 3,0.00003239,0.00000525,0.00000874,0.00001413,-0.00000682,-0.00001583,
 0.00000443,0.00001722,-0.00002018,0.00003133,-0.00000537,-0.00002206,-
 0.00000260,-0.00000434,0.00000168,0.00000152,-0.00000312,0.00000320,-0
 .00000154,0.00000403,0.00000197,0.00009626,0.00006063,0.00022931,0.000
 02186,0.00000901,-0.00001115,-0.00000760,0.00002554,-0.00003157,0.0000
 5526,0.00000364,-0.00000398,0.00430304,-0.00087695,-0.00233962,-0.0005
 6924,-0.00048091,0.00196208,-0.07019659,-0.12025424,-0.15259117,0.0731
 4518,0.13105762,0.15892428,-0.00013177,0.00015219,0.00006994,-0.000184
 83,0.00011495,-0.00006811,0.00015216,0.00130170,-0.00048358,0.00019110
 ,-0.00027355,0.00000964,-0.00005705,-0.00008464,0.00001491,0.00005204,
 0.00085335,0.00015900,-0.00001630,-0.00004733,-0.00006759,0.00005326,0
 .00010744,0.00003947,0.00183696,0.00047991,0.00115533,-0.00004205,-0.0
 0027326,0.00014591,0.00003641,-0.00002053,0.00001314,0.00001508,-0.000
 04098,-0.00001784,0.00002639,0.00001026,0.00001558,0.00001608,-0.00001
 610,-0.00000772,0.00004729,0.00002003,-0.00006029,-0.00002133,-0.00001
 473,0.00000121,-0.00002564,0.00004063,0.00000682,0.00017781,-0.0000698
 4,-0.00004349,0.00028775,0.00002291,-0.00018353,0.00002666,0.00003734,
 0.00002374,-0.00002210,-0.00004892,0.00001524,-0.00004361,0.00000055,0
 .00004011,-0.00007430,-0.00001494,0.00005092,0.00000288,0.00000701,-0.
 00000653,0.00000568,0.00000430,-0.00000127,0.00001075,-0.00000402,-0.0
 0000510,-0.00002101,-0.00004023,-0.00002618,0.00000266,-0.00001829,0.0
 0001084,0.00000212,0.00000282,0.00000693,0.00001268,0.00000828,-0.0000
 0753,-0.02378945,-0.00321842,0.00751666,0.00113235,-0.00060090,-0.0025
 3353,-0.25779342,-0.06716695,0.08705249,-0.00893883,-0.00184107,0.0041
 6469,0.28187138,0.00040459,-0.00019520,-0.00014882,0.00024084,-0.00020
 861,-0.00018752,-0.00105077,-0.00044656,0.00018223,-0.00029099,-0.0000
 6329,0.00004326,-0.00010387,0.00022517,0.00008190,-0.00160633,0.000692
 83,-0.00024769,-0.00007331,-0.00066328,0.00079196,0.00008832,0.0001525
 4,0.00002958,0.00008407,-0.00132888,0.00179949,-0.00045912,0.00036087,
 -0.00016973,-0.00008535,0.00006272,-0.00002167,-0.00006025,0.00005733,
 0.00002422,-0.00004831,-0.00006055,0.00000741,0.00000015,-0.00000118,0
 .00002356,0.00001856,0.00000338,0.00000486,-0.00001186,-0.00002384,0.0
 0000992,0.00020400,-0.00023866,-0.00002373,0.00004989,-0.00006018,-0.0
 0003280,-0.00007622,-0.00008310,0.00008542,-0.00003946,0.00002709,0.00
 010606,0.00001211,-0.00000854,0.00000670,-0.00003064,0.00003905,-0.000
 04638,-0.00005232,0.00000372,0.00003057,0.00000163,0.00000300,-0.00000
 449,0.00000416,0.00000249,-0.00000214,0.00000629,-0.00000319,-0.000001
 46,-0.00007548,-0.00008383,-0.00002884,0.00002310,-0.00002361,0.000014
 95,0.00000963,0.00002505,0.00001149,0.00004491,0.00001032,-0.00001003,
 0.02704081,0.01034131,-0.01195488,-0.00003360,-0.00361885,-0.00054743,
 -0.06346694,-0.06255202,0.02670276,-0.01971397,-0.00511490,0.00932313,
 0.06938221,0.06619053,-0.00028660,0.00010159,0.00012812,-0.00024098,0.
 00000798,-0.00000144,0.00075094,-0.00001075,-0.00006800,0.00003927,0.0
 0003203,-0.00005989,-0.00001096,0.00002651,-0.00006300,-0.00033742,-0.
 00020237,0.00005653,0.00001202,-0.00014194,0.00005996,-0.00006342,-0.0
 0001377,-0.00001297,-0.00134420,0.00206831,-0.00190732,0.00032776,-0.0
 0032567,-0.00011420,0.00003388,-0.00002622,0.00000788,0.00005907,-0.00
 005734,-0.00000660,0.00004584,0.00008079,0.00000244,-0.00004623,0.0000
 2424,0.00000515,-0.00002250,-0.00000145,0.00002184,0.00000966,0.000013
 63,0.00001108,0.00006616,-0.00004876,-0.00002667,-0.00006325,0.0000363
 0,0.00001932,-0.00010387,0.00014974,0.00002432,0.00010967,0.00003723,-
 0.00004995,0.00002505,-0.00005662,-0.00001040,0.00002613,-0.00001613,-
 0.00000626,0.00002772,0.00000527,-0.00002027,0.00000009,-0.00000082,0.
 00000248,-0.00000096,-0.00000343,-0.00000048,-0.00000276,0.00000164,0.
 00000432,0.00007119,0.00002626,0.00003668,0.00002148,-0.00000465,0.000
 02916,-0.00001184,0.00000986,0.00000615,0.00000088,0.00000006,-0.00000
 509,0.00067330,-0.00224766,-0.00225771,0.00007365,-0.00120009,0.000250
 96,0.08631195,0.02783875,-0.07103107,-0.01817209,-0.00411120,0.0067755
 3,-0.09457794,-0.02833077,0.07698116,-0.00008778,0.00003547,0.00006988
 ,-0.00042214,0.00006942,-0.00027245,0.00040733,0.00001311,-0.00041900,
 0.00004499,0.00027688,-0.00017811,-0.00008583,0.00002700,-0.00008463,-
 0.00046611,0.00090217,-0.00006083,0.00002956,-0.00046079,0.00054517,0.
 00011429,-0.00022309,0.00020692,-0.00310081,0.00480109,-0.00019479,0.0
 0003849,-0.00010780,0.00002467,0.00001292,-0.00000966,0.00001690,0.000
 01811,-0.00001272,-0.00000616,0.00009438,0.00009837,0.00002066,-0.0001
 3313,0.00015671,-0.00000209,-0.00002157,-0.00005839,0.00007415,-0.0000
 2348,0.00001749,0.00005088,0.00009296,-0.00006708,-0.00001020,0.000110
 37,-0.00009200,0.00000811,0.00004977,0.00004436,-0.00005246,0.00002729
 ,0.00001735,-0.00001849,0.00000097,-0.00002272,0.00000064,-0.00000059,
 -0.00000787,0.00001105,-0.00004891,-0.00000314,0.00001608,0.00000367,0
 .00000804,0.00000471,0.00000696,0.00000556,-0.00000467,0.00000868,-0.0
 0000447,-0.00000060,-0.00001836,-0.00005142,-0.00010866,0.00000573,0.0
 0001563,0.00003127,0.00001771,-0.00001044,0.00002595,-0.00003913,-0.00
 000780,-0.00001110,-0.00551498,0.00738049,-0.02050507,0.00042354,-0.00
 242920,-0.00088295,-0.04394033,0.01081559,-0.02885946,-0.00235561,0.00
 545842,-0.00929779,0.00520223,-0.01033647,0.02659932,0.04954882,-0.000
 00683,0.00001723,-0.00004753,0.00021318,0.00007979,0.00026363,-0.00000
 888,0.00143814,0.00013474,0.00013735,-0.00034940,0.00030249,0.00016455
 ,0.00017126,0.00006964,0.00019401,-0.00080981,0.00027594,-0.00005173,0
 .00034783,-0.00059717,-0.00005320,0.00008727,-0.00006481,0.00513046,-0
 .00462571,0.00090732,-0.00009548,-0.00004103,0.00006358,0.00001580,-0.
 00000065,-0.00001922,-0.00002118,-0.00001359,0.00001954,-0.00008137,-0
 .00003756,-0.00002923,0.00023337,-0.00025552,-0.00001694,0.00005816,0.
 00003032,-0.00014764,0.00000826,-0.00001485,-0.00003173,-0.00005304,0.
 00005472,-0.00001540,-0.00014107,-0.00000703,-0.00003179,0.00007669,-0
 .00001167,-0.00004598,-0.00001264,0.00000333,0.00000221,-0.00001290,-0
 .00000931,0.00001422,-0.00001070,-0.00000765,0.00001117,0.00003459,0.0
 0001944,-0.00000654,0.00000044,-0.00000129,-0.00000290,-0.00001782,-0.
 00000406,-0.00000103,-0.00000967,-0.00000004,0.00000275,-0.00001878,0.
 00000425,-0.00006745,0.00000821,-0.00003284,0.00002030,-0.00001722,-0.
 00000429,0.00000924,0.00000204,0.00000477,-0.00001074,-0.00246203,-0.0
 0803434,0.02759769,0.00010376,0.00145806,-0.00100935,0.01298074,-0.083
 06940,0.08494152,-0.00129779,0.01107696,-0.02056561,0.00124882,-0.0034
 1911,0.00633946,-0.01623811,0.08595577,0.00006218,-0.00003185,-0.00003
 055,-0.00007717,0.00004975,-0.00014401,0.00050647,0.00008868,0.0002065
 9,-0.00003658,-0.00004062,0.00001731,-0.00004489,-0.00002235,-0.000001
 64,-0.00043351,0.00079481,0.00033785,0.00000765,-0.00037884,0.00026048
 ,0.00007146,0.00002034,0.00005318,0.00146465,-0.00037057,0.00100421,-0
 .00008480,0.00004432,0.00006272,-0.00000698,0.00000657,0.00000451,-0.0
 0001164,0.00001026,0.00000307,0.00001712,-0.00000268,0.00002373,0.0000
 6200,-0.00006002,0.00000135,0.00001739,-0.00001956,-0.00001467,0.00001
 104,-0.00000274,0.00000483,0.00000906,-0.00002474,0.00000057,0.0000889
 6,-0.00003957,-0.00004751,0.00003764,-0.00001776,-0.00002509,-0.000020
 57,-0.00000616,0.00000555,-0.00000629,0.00000456,0.00000477,-0.0000033
 8,-0.00000380,0.00000723,-0.00004311,-0.00000546,0.00003927,0.00000234
 ,0.00000359,-0.00000642,0.00000394,0.00000215,-0.00000284,0.00000629,-
 0.00000222,-0.00000238,-0.00003175,-0.00003609,-0.00008072,0.00000819,
 -0.00000448,0.00001323,0.00000337,-0.00000423,0.00001612,-0.00001249,0
 .00000460,0.00000249,-0.00103264,-0.00091128,0.00151073,0.00116851,-0.
 00217973,-0.00053428,-0.03264304,0.09183624,-0.29699780,0.00009975,0.0
 0708437,-0.01191571,-0.00242233,0.00247889,-0.00878178,0.03326316,-0.0
 9826439,0.31500557\\0.00000624,-0.00000552,-0.00000194,0.00001313,-0.0
 0000223,0.00001667,-0.00003538,0.00003008,-0.00000475,0.00001188,-0.00
 002289,-0.00000426,0.00000115,0.00000719,-0.00000134,0.00000937,-0.000
 00316,-0.00000086,-0.00001535,-0.00000962,0.00000027,-0.00000648,0.000
 00833,-0.00001565,0.00002952,-0.00001611,0.00002885,-0.00000410,0.0000
 1176,-0.00000378,0.00000081,0.00000210,0.00000098,-0.00000259,0.000002
 21,0.00000256,-0.00000314,-0.00000131,-0.00000160,0.00000630,-0.000003
 75,-0.00000107,-0.00000232,-0.00000039,-0.00000033,-0.00000067,-0.0000
 0219,-0.00000091,-0.00000554,-0.00000209,0.00000324,-0.00000463,-0.000
 00669,0.00000545,0.00000167,0.00000163,0.00000858,0.00000356,0.0000054
 0,0.00000252,0.00000015,0.00000387,0.00000483,0.00000281,0.00000429,0.
 00000429,-0.00000092,0.00000053,-0.00000474,-0.00000411,-0.00000437,-0
 .00000285,-0.00000288,-0.00000370,-0.00000172,-0.00000645,-0.00000446,
 -0.00000002,0.00000818,-0.00000425,0.00000360,0.00000372,-0.00000152,-
 0.00000192,0.00000232,-0.00000276,-0.00000579,-0.00000118,-0.00000292,
 -0.00000628,-0.00001997,0.00000763,-0.00003493,0.00000282,0.00000988,0
 .00000891,0.00001450,0.00000371,0.00000077,0.00000110,0.00000046,0.000
 00084,-0.00000131,0.00000054,0.00000233,-0.00000221,0.00000029,0.00000
 005\\\@


 TOWERING GENIUS DISDAINS A BEATEN PATH.  IT SEEKS 
 REGIONS HITHERTO UNEXPLORED.

                                -- ABRAHAM LINCOLN
 Job cpu time:       0 days  6 hours 39 minutes 41.8 seconds.
 File lengths (MBytes):  RWF=    766 Int=      0 D2E=      0 Chk=     19 Scr=      1
 Normal termination of Gaussian 09 at Sun Jan  8 07:46:18 2017.
