 Entering Gaussian System, Link 0=g09
 Initial command:
 /share/apps//g09/l1.exe "/scratch/Gau-27351.inp" -scrdir="/scratch/"
 Entering Link 1 = /share/apps//g09/l1.exe PID=     27352.
  
 Copyright (c) 1988,1990,1992,1993,1995,1998,2003,2009,2013,
            Gaussian, Inc.  All Rights Reserved.
  
 This is part of the Gaussian(R) 09 program.  It is based on
 the Gaussian(R) 03 system (copyright 2003, Gaussian, Inc.),
 the Gaussian(R) 98 system (copyright 1998, Gaussian, Inc.),
 the Gaussian(R) 94 system (copyright 1995, Gaussian, Inc.),
 the Gaussian 92(TM) system (copyright 1992, Gaussian, Inc.),
 the Gaussian 90(TM) system (copyright 1990, Gaussian, Inc.),
 the Gaussian 88(TM) system (copyright 1988, Gaussian, Inc.),
 the Gaussian 86(TM) system (copyright 1986, Carnegie Mellon
 University), and the Gaussian 82(TM) system (copyright 1983,
 Carnegie Mellon University). Gaussian is a federally registered
 trademark of Gaussian, Inc.
  
 This software contains proprietary and confidential information,
 including trade secrets, belonging to Gaussian, Inc.
  
 This software is provided under written license and may be
 used, copied, transmitted, or stored only in accord with that
 written license.
  
 The following legend is applicable only to US Government
 contracts under FAR:
  
                    RESTRICTED RIGHTS LEGEND
  
 Use, reproduction and disclosure by the US Government is
 subject to restrictions as set forth in subparagraphs (a)
 and (c) of the Commercial Computer Software - Restricted
 Rights clause in FAR 52.227-19.
  
 Gaussian, Inc.
 340 Quinnipiac St., Bldg. 40, Wallingford CT 06492
  
  
 ---------------------------------------------------------------
 Warning -- This program may not be used in any manner that
 competes with the business of Gaussian, Inc. or will provide
 assistance to any competitor of Gaussian, Inc.  The licensee
 of this program is prohibited from giving any competitor of
 Gaussian, Inc. access to this program.  By using this program,
 the user acknowledges that Gaussian, Inc. is engaged in the
 business of creating and licensing software in the field of
 computational chemistry and represents and warrants to the
 licensee that it is not a competitor of Gaussian, Inc. and that
 it will not use this program in any manner prohibited above.
 ---------------------------------------------------------------
  

 Cite this work as:
 Gaussian 09, Revision D.01,
 M. J. Frisch, G. W. Trucks, H. B. Schlegel, G. E. Scuseria, 
 M. A. Robb, J. R. Cheeseman, G. Scalmani, V. Barone, B. Mennucci, 
 G. A. Petersson, H. Nakatsuji, M. Caricato, X. Li, H. P. Hratchian, 
 A. F. Izmaylov, J. Bloino, G. Zheng, J. L. Sonnenberg, M. Hada, 
 M. Ehara, K. Toyota, R. Fukuda, J. Hasegawa, M. Ishida, T. Nakajima, 
 Y. Honda, O. Kitao, H. Nakai, T. Vreven, J. A. Montgomery, Jr., 
 J. E. Peralta, F. Ogliaro, M. Bearpark, J. J. Heyd, E. Brothers, 
 K. N. Kudin, V. N. Staroverov, T. Keith, R. Kobayashi, J. Normand, 
 K. Raghavachari, A. Rendell, J. C. Burant, S. S. Iyengar, J. Tomasi, 
 M. Cossi, N. Rega, J. M. Millam, M. Klene, J. E. Knox, J. B. Cross, 
 V. Bakken, C. Adamo, J. Jaramillo, R. Gomperts, R. E. Stratmann, 
 O. Yazyev, A. J. Austin, R. Cammi, C. Pomelli, J. W. Ochterski, 
 R. L. Martin, K. Morokuma, V. G. Zakrzewski, G. A. Voth, 
 P. Salvador, J. J. Dannenberg, S. Dapprich, A. D. Daniels, 
 O. Farkas, J. B. Foresman, J. V. Ortiz, J. Cioslowski, 
 and D. J. Fox, Gaussian, Inc., Wallingford CT, 2013.
 
 ******************************************
 Gaussian 09:  EM64L-G09RevD.01 24-Apr-2013
                24-Oct-2017 
 ******************************************
 %nproc=20
 Will use up to   20 processors via shared memory.
 %mem=100GB
 %chk=Ac-4_cGalMe.chk
 -------------------------------------------------------------------
 #P PBE1PBE/6-311+G(d,p) opt optcyc=999 freq EmpiricalDispersion=GD3
 -------------------------------------------------------------------
 1/6=999,14=-1,18=20,19=15,26=3,38=1/1,3;
 2/9=110,12=2,17=6,18=5,40=1/2;
 3/5=4,6=6,7=111,11=2,16=1,25=1,30=1,71=1,74=-13,124=31/1,2,3;
 4//1;
 5/5=2,38=5/2;
 6/7=2,8=2,9=2,10=2,28=1/1;
 7//1,2,3,16;
 1/6=999,14=-1,18=20,19=15,26=3/3(2);
 2/9=110/2;
 99//99;
 2/9=110/2;
 3/5=4,6=6,7=111,11=2,16=1,25=1,30=1,71=1,74=-13,124=31/1,2,3;
 4/5=5,16=3,69=1/1;
 5/5=2,38=5/2;
 7//1,2,3,16;
 1/6=999,14=-1,18=20,19=15,26=3/3(-5);
 2/9=110/2;
 6/7=2,8=2,9=2,10=2,19=2,28=1/1;
 99/9=1/99;
 Leave Link    1 at Tue Oct 24 12:45:24 2017, MaxMem= 13421772800 cpu:         1.8
 (Enter /share/apps//g09/l101.exe)
 -------
 disacch
 -------
 Symbolic Z-matrix:
 Charge =  1 Multiplicity = 1
 C                     0.02839  -1.85458   3.85267 
 C                     0.82484  -1.3215    2.65154 
 C                     0.71385   0.17929   2.4596 
 C                     1.58247   0.67923   1.29755 
 C                     1.57299  -0.36297   0.13079 
 C                     0.39707  -1.32018   0.30767 
 O                     0.33126  -2.01485   1.4583 
 O                     1.11631   1.95965   0.92537 
 O                    -0.71961   0.5642    2.23914 
 O                     0.4974   -1.25205   5.04211 
 H                     0.10929  -2.95429   3.87202 
 H                    -1.03603  -1.59615   3.74165 
 H                     1.89323  -1.57093   2.76643 
 H                     0.9407    0.70042   3.39719 
 H                     2.61756   0.7207    1.68959 
 H                     1.4434    0.16782  -0.82961 
 H                     0.21761  -1.99313  -0.53663 
 O                     2.71277  -1.19948   0.12563 
 C                     1.49644  -2.01742   5.73441 
 H                     1.75384  -1.44422   6.63166 
 H                     1.09837  -3.00058   6.0327 
 H                     2.40788  -2.16234   5.12925 
 C                     3.82363  -0.65939  -0.60963 
 H                     3.55123  -0.49551  -1.66472 
 H                     4.185     0.28597  -0.17149 
 H                     4.61946  -1.40867  -0.55005 
 C                     2.10144   2.76418   0.25677 
 H                     2.97922   2.92147   0.90415 
 H                     2.4242    2.31511  -0.69707 
 H                     1.62225   3.72707   0.05304 
 C                    -1.32236   0.37066   1.10548 
 O                    -0.90886  -0.37654   0.15105 
 C                    -2.60327   1.09379   0.92321 
 H                    -2.36141   2.10639   0.56378 
 H                    -3.11806   1.19902   1.88456 
 H                    -3.23094   0.59261   0.1816 
 
 NAtoms=     36 NQM=       36 NQMF=       0 NMMI=      0 NMMIF=      0
                NMic=       0 NMicF=      0.
                    Isotopes and Nuclear Properties:
 (Nuclear quadrupole moments (NQMom) in fm**2, nuclear magnetic moments (NMagM)
  in nuclear magnetons)

  Atom         1           2           3           4           5           6           7           8           9          10
 IAtWgt=          12          12          12          12          12          12          16          16          16          16
 AtmWgt=  12.0000000  12.0000000  12.0000000  12.0000000  12.0000000  12.0000000  15.9949146  15.9949146  15.9949146  15.9949146
 NucSpn=           0           0           0           0           0           0           0           0           0           0
 AtZEff=   0.0000000   0.0000000   0.0000000   0.0000000   0.0000000   0.0000000   0.0000000   0.0000000   0.0000000   0.0000000
 NQMom=    0.0000000   0.0000000   0.0000000   0.0000000   0.0000000   0.0000000   0.0000000   0.0000000   0.0000000   0.0000000
 NMagM=    0.0000000   0.0000000   0.0000000   0.0000000   0.0000000   0.0000000   0.0000000   0.0000000   0.0000000   0.0000000
 AtZNuc=   6.0000000   6.0000000   6.0000000   6.0000000   6.0000000   6.0000000   8.0000000   8.0000000   8.0000000   8.0000000

  Atom        11          12          13          14          15          16          17          18          19          20
 IAtWgt=           1           1           1           1           1           1           1          16          12           1
 AtmWgt=   1.0078250   1.0078250   1.0078250   1.0078250   1.0078250   1.0078250   1.0078250  15.9949146  12.0000000   1.0078250
 NucSpn=           1           1           1           1           1           1           1           0           0           1
 AtZEff=   0.0000000   0.0000000   0.0000000   0.0000000   0.0000000   0.0000000   0.0000000   0.0000000   0.0000000   0.0000000
 NQMom=    0.0000000   0.0000000   0.0000000   0.0000000   0.0000000   0.0000000   0.0000000   0.0000000   0.0000000   0.0000000
 NMagM=    2.7928460   2.7928460   2.7928460   2.7928460   2.7928460   2.7928460   2.7928460   0.0000000   0.0000000   2.7928460
 AtZNuc=   1.0000000   1.0000000   1.0000000   1.0000000   1.0000000   1.0000000   1.0000000   8.0000000   6.0000000   1.0000000

  Atom        21          22          23          24          25          26          27          28          29          30
 IAtWgt=           1           1          12           1           1           1          12           1           1           1
 AtmWgt=   1.0078250   1.0078250  12.0000000   1.0078250   1.0078250   1.0078250  12.0000000   1.0078250   1.0078250   1.0078250
 NucSpn=           1           1           0           1           1           1           0           1           1           1
 AtZEff=   0.0000000   0.0000000   0.0000000   0.0000000   0.0000000   0.0000000   0.0000000   0.0000000   0.0000000   0.0000000
 NQMom=    0.0000000   0.0000000   0.0000000   0.0000000   0.0000000   0.0000000   0.0000000   0.0000000   0.0000000   0.0000000
 NMagM=    2.7928460   2.7928460   0.0000000   2.7928460   2.7928460   2.7928460   0.0000000   2.7928460   2.7928460   2.7928460
 AtZNuc=   1.0000000   1.0000000   6.0000000   1.0000000   1.0000000   1.0000000   6.0000000   1.0000000   1.0000000   1.0000000

  Atom        31          32          33          34          35          36
 IAtWgt=          12          16          12           1           1           1
 AtmWgt=  12.0000000  15.9949146  12.0000000   1.0078250   1.0078250   1.0078250
 NucSpn=           0           0           0           1           1           1
 AtZEff=   0.0000000   0.0000000   0.0000000   0.0000000   0.0000000   0.0000000
 NQMom=    0.0000000   0.0000000   0.0000000   0.0000000   0.0000000   0.0000000
 NMagM=    0.0000000   0.0000000   0.0000000   2.7928460   2.7928460   2.7928460
 AtZNuc=   6.0000000   8.0000000   6.0000000   1.0000000   1.0000000   1.0000000
 Leave Link  101 at Tue Oct 24 12:45:25 2017, MaxMem= 13421772800 cpu:         4.2
 (Enter /share/apps//g09/l103.exe)

 GradGradGradGradGradGradGradGradGradGradGradGradGradGradGradGradGradGrad
 Berny optimization.
 Initialization pass.
                           ----------------------------
                           !    Initial Parameters    !
                           ! (Angstroms and Degrees)  !
 --------------------------                            --------------------------
 ! Name  Definition              Value          Derivative Info.                !
 --------------------------------------------------------------------------------
 ! R1    R(1,2)                  1.5366         estimate D2E/DX2                !
 ! R2    R(1,10)                 1.4134         estimate D2E/DX2                !
 ! R3    R(1,11)                 1.1029         estimate D2E/DX2                !
 ! R4    R(1,12)                 1.101          estimate D2E/DX2                !
 ! R5    R(2,3)                  1.5171         estimate D2E/DX2                !
 ! R6    R(2,7)                  1.4657         estimate D2E/DX2                !
 ! R7    R(2,13)                 1.1031         estimate D2E/DX2                !
 ! R8    R(3,4)                  1.5345         estimate D2E/DX2                !
 ! R9    R(3,9)                  1.5005         estimate D2E/DX2                !
 ! R10   R(3,14)                 1.0964         estimate D2E/DX2                !
 ! R11   R(4,5)                  1.5645         estimate D2E/DX2                !
 ! R12   R(4,8)                  1.4126         estimate D2E/DX2                !
 ! R13   R(4,15)                 1.1076         estimate D2E/DX2                !
 ! R14   R(5,6)                  1.5265         estimate D2E/DX2                !
 ! R15   R(5,16)                 1.1049         estimate D2E/DX2                !
 ! R16   R(5,18)                 1.4138         estimate D2E/DX2                !
 ! R17   R(6,7)                  1.3457         estimate D2E/DX2                !
 ! R18   R(6,17)                 1.0945         estimate D2E/DX2                !
 ! R19   R(6,32)                 1.6188         estimate D2E/DX2                !
 ! R20   R(8,27)                 1.4369         estimate D2E/DX2                !
 ! R21   R(9,31)                 1.2984         estimate D2E/DX2                !
 ! R22   R(10,19)                1.4364         estimate D2E/DX2                !
 ! R23   R(18,23)                1.4375         estimate D2E/DX2                !
 ! R24   R(19,20)                1.0954         estimate D2E/DX2                !
 ! R25   R(19,21)                1.1018         estimate D2E/DX2                !
 ! R26   R(19,22)                1.1036         estimate D2E/DX2                !
 ! R27   R(23,24)                1.1019         estimate D2E/DX2                !
 ! R28   R(23,25)                1.1028         estimate D2E/DX2                !
 ! R29   R(23,26)                1.0947         estimate D2E/DX2                !
 ! R30   R(27,28)                1.102          estimate D2E/DX2                !
 ! R31   R(27,29)                1.1026         estimate D2E/DX2                !
 ! R32   R(27,30)                1.0947         estimate D2E/DX2                !
 ! R33   R(31,32)                1.2807         estimate D2E/DX2                !
 ! R34   R(31,33)                1.4822         estimate D2E/DX2                !
 ! R35   R(33,34)                1.1014         estimate D2E/DX2                !
 ! R36   R(33,35)                1.0956         estimate D2E/DX2                !
 ! R37   R(33,36)                1.0932         estimate D2E/DX2                !
 ! A1    A(2,1,10)             109.7502         estimate D2E/DX2                !
 ! A2    A(2,1,11)             108.761          estimate D2E/DX2                !
 ! A3    A(2,1,12)             109.929          estimate D2E/DX2                !
 ! A4    A(10,1,11)            112.7039         estimate D2E/DX2                !
 ! A5    A(10,1,12)            107.7948         estimate D2E/DX2                !
 ! A6    A(11,1,12)            107.8637         estimate D2E/DX2                !
 ! A7    A(1,2,3)              113.8389         estimate D2E/DX2                !
 ! A8    A(1,2,7)              107.3206         estimate D2E/DX2                !
 ! A9    A(1,2,13)             110.0073         estimate D2E/DX2                !
 ! A10   A(3,2,7)              109.8977         estimate D2E/DX2                !
 ! A11   A(3,2,13)             107.9218         estimate D2E/DX2                !
 ! A12   A(7,2,13)             107.6971         estimate D2E/DX2                !
 ! A13   A(2,3,4)              112.1288         estimate D2E/DX2                !
 ! A14   A(2,3,9)              110.0135         estimate D2E/DX2                !
 ! A15   A(2,3,14)             110.2962         estimate D2E/DX2                !
 ! A16   A(4,3,9)              110.2379         estimate D2E/DX2                !
 ! A17   A(4,3,14)             112.0617         estimate D2E/DX2                !
 ! A18   A(9,3,14)             101.6172         estimate D2E/DX2                !
 ! A19   A(3,4,5)              110.1386         estimate D2E/DX2                !
 ! A20   A(3,4,8)              107.9411         estimate D2E/DX2                !
 ! A21   A(3,4,15)             105.8516         estimate D2E/DX2                !
 ! A22   A(5,4,8)              113.9132         estimate D2E/DX2                !
 ! A23   A(5,4,15)             107.1318         estimate D2E/DX2                !
 ! A24   A(8,4,15)             111.5752         estimate D2E/DX2                !
 ! A25   A(4,5,6)              109.6315         estimate D2E/DX2                !
 ! A26   A(4,5,16)             109.2034         estimate D2E/DX2                !
 ! A27   A(4,5,18)             113.0781         estimate D2E/DX2                !
 ! A28   A(6,5,16)             108.1549         estimate D2E/DX2                !
 ! A29   A(6,5,18)             104.5029         estimate D2E/DX2                !
 ! A30   A(16,5,18)            112.0615         estimate D2E/DX2                !
 ! A31   A(5,6,7)              117.4157         estimate D2E/DX2                !
 ! A32   A(5,6,17)             114.9902         estimate D2E/DX2                !
 ! A33   A(5,6,32)             104.1646         estimate D2E/DX2                !
 ! A34   A(7,6,17)             109.5226         estimate D2E/DX2                !
 ! A35   A(7,6,32)             110.1329         estimate D2E/DX2                !
 ! A36   A(17,6,32)             98.7141         estimate D2E/DX2                !
 ! A37   A(2,7,6)              115.814          estimate D2E/DX2                !
 ! A38   A(4,8,27)             113.8202         estimate D2E/DX2                !
 ! A39   A(3,9,31)             122.2426         estimate D2E/DX2                !
 ! A40   A(1,10,19)            114.1574         estimate D2E/DX2                !
 ! A41   A(5,18,23)            113.7386         estimate D2E/DX2                !
 ! A42   A(10,19,20)           106.2247         estimate D2E/DX2                !
 ! A43   A(10,19,21)           110.7726         estimate D2E/DX2                !
 ! A44   A(10,19,22)           112.34           estimate D2E/DX2                !
 ! A45   A(20,19,21)           109.2729         estimate D2E/DX2                !
 ! A46   A(20,19,22)           108.8934         estimate D2E/DX2                !
 ! A47   A(21,19,22)           109.2475         estimate D2E/DX2                !
 ! A48   A(18,23,24)           110.7685         estimate D2E/DX2                !
 ! A49   A(18,23,25)           111.8442         estimate D2E/DX2                !
 ! A50   A(18,23,26)           106.0696         estimate D2E/DX2                !
 ! A51   A(24,23,25)           109.5062         estimate D2E/DX2                !
 ! A52   A(24,23,26)           109.4888         estimate D2E/DX2                !
 ! A53   A(25,23,26)           109.0804         estimate D2E/DX2                !
 ! A54   A(8,27,28)            110.6505         estimate D2E/DX2                !
 ! A55   A(8,27,29)            112.0357         estimate D2E/DX2                !
 ! A56   A(8,27,30)            106.1993         estimate D2E/DX2                !
 ! A57   A(28,27,29)           109.4623         estimate D2E/DX2                !
 ! A58   A(28,27,30)           109.4191         estimate D2E/DX2                !
 ! A59   A(29,27,30)           108.9901         estimate D2E/DX2                !
 ! A60   A(9,31,32)            125.997          estimate D2E/DX2                !
 ! A61   A(9,31,33)            115.8374         estimate D2E/DX2                !
 ! A62   A(32,31,33)           118.1656         estimate D2E/DX2                !
 ! A63   A(6,32,31)            121.9018         estimate D2E/DX2                !
 ! A64   A(31,33,34)           107.3921         estimate D2E/DX2                !
 ! A65   A(31,33,35)           110.1835         estimate D2E/DX2                !
 ! A66   A(31,33,36)           110.8508         estimate D2E/DX2                !
 ! A67   A(34,33,35)           107.5321         estimate D2E/DX2                !
 ! A68   A(34,33,36)           109.0374         estimate D2E/DX2                !
 ! A69   A(35,33,36)           111.6856         estimate D2E/DX2                !
 ! D1    D(10,1,2,3)           -60.2224         estimate D2E/DX2                !
 ! D2    D(10,1,2,7)           177.9369         estimate D2E/DX2                !
 ! D3    D(10,1,2,13)           61.0373         estimate D2E/DX2                !
 ! D4    D(11,1,2,3)           176.0628         estimate D2E/DX2                !
 ! D5    D(11,1,2,7)            54.2221         estimate D2E/DX2                !
 ! D6    D(11,1,2,13)          -62.6775         estimate D2E/DX2                !
 ! D7    D(12,1,2,3)            58.1741         estimate D2E/DX2                !
 ! D8    D(12,1,2,7)           -63.6666         estimate D2E/DX2                !
 ! D9    D(12,1,2,13)          179.4338         estimate D2E/DX2                !
 ! D10   D(2,1,10,19)          -94.1943         estimate D2E/DX2                !
 ! D11   D(11,1,10,19)          27.1813         estimate D2E/DX2                !
 ! D12   D(12,1,10,19)         146.0967         estimate D2E/DX2                !
 ! D13   D(1,2,3,4)            176.9315         estimate D2E/DX2                !
 ! D14   D(1,2,3,9)            -60.0069         estimate D2E/DX2                !
 ! D15   D(1,2,3,14)            51.2905         estimate D2E/DX2                !
 ! D16   D(7,2,3,4)            -62.6652         estimate D2E/DX2                !
 ! D17   D(7,2,3,9)             60.3964         estimate D2E/DX2                !
 ! D18   D(7,2,3,14)           171.6938         estimate D2E/DX2                !
 ! D19   D(13,2,3,4)            54.5175         estimate D2E/DX2                !
 ! D20   D(13,2,3,9)           177.5792         estimate D2E/DX2                !
 ! D21   D(13,2,3,14)          -71.1235         estimate D2E/DX2                !
 ! D22   D(1,2,7,6)            149.8546         estimate D2E/DX2                !
 ! D23   D(3,2,7,6)             25.5827         estimate D2E/DX2                !
 ! D24   D(13,2,7,6)           -91.7402         estimate D2E/DX2                !
 ! D25   D(2,3,4,5)             37.0737         estimate D2E/DX2                !
 ! D26   D(2,3,4,8)            162.002          estimate D2E/DX2                !
 ! D27   D(2,3,4,15)           -78.4118         estimate D2E/DX2                !
 ! D28   D(9,3,4,5)            -85.8613         estimate D2E/DX2                !
 ! D29   D(9,3,4,8)             39.067          estimate D2E/DX2                !
 ! D30   D(9,3,4,15)           158.6532         estimate D2E/DX2                !
 ! D31   D(14,3,4,5)           161.7433         estimate D2E/DX2                !
 ! D32   D(14,3,4,8)           -73.3284         estimate D2E/DX2                !
 ! D33   D(14,3,4,15)           46.2579         estimate D2E/DX2                !
 ! D34   D(2,3,9,31)           -76.493          estimate D2E/DX2                !
 ! D35   D(4,3,9,31)            47.6711         estimate D2E/DX2                !
 ! D36   D(14,3,9,31)          166.6498         estimate D2E/DX2                !
 ! D37   D(3,4,5,6)             17.4187         estimate D2E/DX2                !
 ! D38   D(3,4,5,16)           135.7486         estimate D2E/DX2                !
 ! D39   D(3,4,5,18)           -98.7489         estimate D2E/DX2                !
 ! D40   D(8,4,5,6)           -104.0151         estimate D2E/DX2                !
 ! D41   D(8,4,5,16)            14.3149         estimate D2E/DX2                !
 ! D42   D(8,4,5,18)           139.8173         estimate D2E/DX2                !
 ! D43   D(15,4,5,6)           132.0942         estimate D2E/DX2                !
 ! D44   D(15,4,5,16)         -109.5758         estimate D2E/DX2                !
 ! D45   D(15,4,5,18)           15.9266         estimate D2E/DX2                !
 ! D46   D(3,4,8,27)           156.5457         estimate D2E/DX2                !
 ! D47   D(5,4,8,27)           -80.8086         estimate D2E/DX2                !
 ! D48   D(15,4,8,27)           40.6477         estimate D2E/DX2                !
 ! D49   D(4,5,6,7)            -57.5842         estimate D2E/DX2                !
 ! D50   D(4,5,6,17)           171.336          estimate D2E/DX2                !
 ! D51   D(4,5,6,32)            64.4763         estimate D2E/DX2                !
 ! D52   D(16,5,6,7)          -176.5629         estimate D2E/DX2                !
 ! D53   D(16,5,6,17)           52.3574         estimate D2E/DX2                !
 ! D54   D(16,5,6,32)          -54.5023         estimate D2E/DX2                !
 ! D55   D(18,5,6,7)            63.8918         estimate D2E/DX2                !
 ! D56   D(18,5,6,17)          -67.1879         estimate D2E/DX2                !
 ! D57   D(18,5,6,32)         -174.0476         estimate D2E/DX2                !
 ! D58   D(4,5,18,23)          -87.8692         estimate D2E/DX2                !
 ! D59   D(6,5,18,23)          152.9589         estimate D2E/DX2                !
 ! D60   D(16,5,18,23)          36.0803         estimate D2E/DX2                !
 ! D61   D(5,6,7,2)             34.0359         estimate D2E/DX2                !
 ! D62   D(17,6,7,2)           167.5753         estimate D2E/DX2                !
 ! D63   D(32,6,7,2)           -84.8956         estimate D2E/DX2                !
 ! D64   D(5,6,32,31)          -78.7851         estimate D2E/DX2                !
 ! D65   D(7,6,32,31)           47.9638         estimate D2E/DX2                !
 ! D66   D(17,6,32,31)         162.5633         estimate D2E/DX2                !
 ! D67   D(4,8,27,28)          -59.7919         estimate D2E/DX2                !
 ! D68   D(4,8,27,29)           62.6651         estimate D2E/DX2                !
 ! D69   D(4,8,27,30)         -178.4436         estimate D2E/DX2                !
 ! D70   D(3,9,31,32)           14.6086         estimate D2E/DX2                !
 ! D71   D(3,9,31,33)         -165.2876         estimate D2E/DX2                !
 ! D72   D(1,10,19,20)        -179.251          estimate D2E/DX2                !
 ! D73   D(1,10,19,21)         -60.6937         estimate D2E/DX2                !
 ! D74   D(1,10,19,22)          61.7898         estimate D2E/DX2                !
 ! D75   D(5,18,23,24)         -60.11           estimate D2E/DX2                !
 ! D76   D(5,18,23,25)          62.3535         estimate D2E/DX2                !
 ! D77   D(5,18,23,26)        -178.8319         estimate D2E/DX2                !
 ! D78   D(9,31,32,6)            6.3127         estimate D2E/DX2                !
 ! D79   D(33,31,32,6)        -173.7933         estimate D2E/DX2                !
 ! D80   D(9,31,33,34)          84.366          estimate D2E/DX2                !
 ! D81   D(9,31,33,35)         -32.4719         estimate D2E/DX2                !
 ! D82   D(9,31,33,36)        -156.617          estimate D2E/DX2                !
 ! D83   D(32,31,33,34)        -95.5388         estimate D2E/DX2                !
 ! D84   D(32,31,33,35)        147.6233         estimate D2E/DX2                !
 ! D85   D(32,31,33,36)         23.4782         estimate D2E/DX2                !
 --------------------------------------------------------------------------------
 Trust Radius=3.00D-01 FncErr=1.00D-07 GrdErr=1.00D-06
 Number of steps in this run=    216 maximum allowed number of steps=    216.
 GradGradGradGradGradGradGradGradGradGradGradGradGradGradGradGradGradGrad

 Leave Link  103 at Tue Oct 24 12:45:25 2017, MaxMem= 13421772800 cpu:         0.2
 (Enter /share/apps//g09/l202.exe)
                          Input orientation:                          
 ---------------------------------------------------------------------
 Center     Atomic      Atomic             Coordinates (Angstroms)
 Number     Number       Type             X           Y           Z
 ---------------------------------------------------------------------
      1          6           0        0.028390   -1.854580    3.852670
      2          6           0        0.824840   -1.321500    2.651540
      3          6           0        0.713850    0.179290    2.459600
      4          6           0        1.582470    0.679230    1.297550
      5          6           0        1.572990   -0.362970    0.130790
      6          6           0        0.397070   -1.320180    0.307670
      7          8           0        0.331260   -2.014850    1.458300
      8          8           0        1.116310    1.959650    0.925370
      9          8           0       -0.719610    0.564200    2.239140
     10          8           0        0.497400   -1.252050    5.042110
     11          1           0        0.109290   -2.954290    3.872020
     12          1           0       -1.036030   -1.596150    3.741650
     13          1           0        1.893230   -1.570930    2.766430
     14          1           0        0.940700    0.700420    3.397190
     15          1           0        2.617560    0.720700    1.689590
     16          1           0        1.443400    0.167820   -0.829610
     17          1           0        0.217610   -1.993130   -0.536630
     18          8           0        2.712770   -1.199480    0.125630
     19          6           0        1.496440   -2.017420    5.734410
     20          1           0        1.753840   -1.444220    6.631660
     21          1           0        1.098370   -3.000580    6.032700
     22          1           0        2.407880   -2.162340    5.129250
     23          6           0        3.823630   -0.659390   -0.609630
     24          1           0        3.551230   -0.495510   -1.664720
     25          1           0        4.185000    0.285970   -0.171490
     26          1           0        4.619460   -1.408670   -0.550050
     27          6           0        2.101440    2.764180    0.256770
     28          1           0        2.979220    2.921470    0.904150
     29          1           0        2.424200    2.315110   -0.697070
     30          1           0        1.622250    3.727070    0.053040
     31          6           0       -1.322360    0.370660    1.105480
     32          8           0       -0.908860   -0.376540    0.151050
     33          6           0       -2.603270    1.093790    0.923210
     34          1           0       -2.361410    2.106390    0.563780
     35          1           0       -3.118060    1.199020    1.884560
     36          1           0       -3.230940    0.592610    0.181600
 ---------------------------------------------------------------------
                    Distance matrix (angstroms):
                    1          2          3          4          5
     1  C    0.000000
     2  C    1.536626   0.000000
     3  C    2.558735   1.517080   0.000000
     4  C    3.919693   2.531840   1.534536   0.000000
     5  C    4.296869   2.798694   2.540772   1.564481   0.000000
     6  C    3.603961   2.382586   2.641886   2.526396   1.526540
     7  O    2.418765   1.465666   2.441972   2.974800   2.456193
     8  O    4.929605   3.718946   2.384432   1.412550   2.496894
     9  O    3.002246   2.472097   1.500522   2.489859   3.249738
    10  O    1.413429   2.413890   2.960565   4.350741   5.105724
    11  H    1.102851   2.160460   3.489949   4.690482   4.780602
    12  H    1.100955   2.174077   2.803198   4.243527   4.622340
    13  H    2.176695   1.103119   2.132687   2.705069   2.916902
    14  H    2.750963   2.158142   1.096409   2.195633   3.492844
    15  H    4.244383   2.882668   2.123712   1.107622   2.166870
    16  H    5.293024   3.836547   3.369166   2.192188   1.104943
    17  H    4.395561   3.314248   3.734040   3.516897   2.222594
    18  O    4.639599   3.155850   3.368101   2.486066   1.413815
    19  C    2.392203   3.231012   4.020244   5.192788   5.843254
    20  H    3.296719   4.088943   4.596025   5.743791   6.592656
    21  H    2.685275   3.785019   4.798591   6.016394   6.481882
    22  H    2.717783   3.058116   3.934463   4.841255   5.377674
    23  C    5.978666   4.479549   4.449077   3.232961   2.387774
    24  H    6.685736   5.171611   5.051346   3.745807   2.674856
    25  H    6.168730   4.673771   4.356937   3.014282   2.708338
    26  H    6.376575   4.965573   5.180096   4.122652   3.292113
    27  C    6.209749   4.904836   3.668722   2.387377   3.173988
    28  H    6.341279   5.069272   3.882123   2.670827   3.655559
    29  H    6.620148   5.195775   4.177510   2.713507   2.929509
    30  H    6.937751   5.733770   4.382176   3.292372   4.091076
    31  C    3.784610   3.140728   2.452838   2.927481   3.141860
    32  O    4.094512   3.186082   2.876028   2.938680   2.481970
    33  C    4.919376   4.535713   3.768301   4.222844   4.493465
    34  H    5.676022   5.124584   4.094517   4.257863   4.665268
    35  H    4.806046   4.742124   4.006751   4.765474   5.246091
    36  H    5.485319   5.119939   4.574001   4.941838   4.898312
                    6          7          8          9         10
     6  C    0.000000
     7  O    1.345677   0.000000
     8  O    3.414110   4.086192   0.000000
     9  O    2.920349   2.892324   2.654030   0.000000
    10  O    4.735993   3.667855   5.257910   3.554788   0.000000
    11  H    3.931631   2.599589   5.817529   3.966503   2.101752
    12  H    3.731240   2.694156   5.020728   2.650428   2.039855
    13  H    2.889095   2.085190   4.056859   3.415223   2.688633
    14  H    3.731420   3.391667   2.779639   2.028858   2.591219
    15  H    3.317449   3.572660   2.091120   3.385735   4.430148
    16  H    2.145310   3.351930   2.529347   3.775309   6.114576
    17  H    1.094491   1.998283   4.309243   3.888858   5.634698
    18  O    2.325978   2.848232   3.628825   4.399855   5.392810
    19  C    5.580705   4.432016   6.252076   4.877761   1.436367
    20  H    6.469085   5.395647   6.674917   5.426411   2.035249
    21  H    6.007623   4.741862   7.119622   5.513965   2.097568
    22  H    5.291524   4.220187   6.027567   5.056476   2.118055
    23  C    3.608240   4.279048   4.067576   5.500336   6.584620
    24  H    3.810397   4.736017   4.320325   5.882447   7.408090
    25  H    4.142189   4.775071   3.663491   5.472088   6.568525
    26  H    4.309535   4.773844   5.078829   6.338570   6.948968
    27  C    4.425999   5.236061   1.436933   4.089991   6.450002
    28  H    5.001488   5.629035   2.096660   4.584786   6.379688
    29  H    4.281833   5.270159   2.114058   4.644411   7.026761
    30  H    5.200061   6.050707   2.034873   4.501898   7.137769
    31  C    2.540055   2.923970   2.916237   1.298441   4.630526
    32  O    1.618777   2.435336   3.187267   2.298027   5.163967
    33  C    3.899767   4.308298   3.819030   2.358031   5.664138
    34  H    4.406380   5.003524   3.499545   2.807256   6.285488
    35  H    4.603161   4.733758   4.407776   2.506249   5.389751
    36  H    4.103305   4.595441   4.617421   3.246699   6.397488
                   11         12         13         14         15
    11  H    0.000000
    12  H    1.781375   0.000000
    13  H    2.513654   3.087435   0.000000
    14  H    3.778043   3.049647   2.542480   0.000000
    15  H    4.955802   4.788263   2.633592   2.393359   0.000000
    16  H    5.799375   5.491410   4.019590   4.289780   2.833848
    17  H    4.513508   4.475811   3.727755   4.822138   4.252139
    18  O    4.888037   5.223643   2.789883   4.177674   2.478332
    19  C    2.504078   3.249918   3.027491   3.627409   5.011465
    20  H    3.549714   4.019778   3.869818   3.965157   5.464151
    21  H    2.376754   3.431763   3.652974   4.546226   5.917640
    22  H    2.737029   3.755865   2.489488   3.653497   4.493011
    23  C    6.256842   6.589951   3.994387   5.120056   2.940351
    24  H    6.967642   7.175179   4.851864   5.819626   3.688130
    25  H    6.592471   6.790743   4.163131   4.840736   2.471736
    26  H    6.502713   7.102000   4.296242   5.793293   3.682093
    27  C    7.052630   6.403170   5.013474   3.933022   2.548561
    28  H    7.181177   6.677015   4.982883   3.912017   2.364551
    29  H    7.348603   6.853713   5.232501   4.644455   2.876748
    30  H    7.843101   7.000641   5.958584   4.561629   3.564716
    31  C    4.556167   3.301472   4.107134   3.237610   3.998335
    32  O    4.639724   3.794210   4.014784   3.888205   4.000835
    33  C    5.695649   4.199479   5.542265   4.339936   5.289953
    34  H    6.531408   5.056114   6.039562   4.572624   5.289398
    35  H    5.622790   3.949254   5.793388   4.360067   5.758831
    36  H    6.112024   4.720408   6.133463   5.268228   6.041142
                   16         17         18         19         20
    16  H    0.000000
    17  H    2.501620   0.000000
    18  O    2.096018   2.700795   0.000000
    19  C    6.918414   6.400151   5.797146   0.000000
    20  H    7.639738   7.351577   6.580872   1.095386   0.000000
    21  H    7.566314   6.704237   6.383081   1.101835   1.791829
    22  H    6.470539   6.076850   5.104534   1.103605   1.789050
    23  C    2.529459   3.845461   1.437468   6.892525   7.572072
    24  H    2.362279   3.824719   2.098557   7.828505   8.541697
    25  H    2.821959   4.589968   2.112416   6.885755   7.428792
    26  H    3.556801   4.440502   2.033659   7.044024   7.732399
    27  C    2.890385   5.177866   4.012670   7.296181   7.646612
    28  H    3.598229   5.818559   4.202299   7.065599   7.305147
    29  H    2.364401   4.843110   3.621112   7.809961   8.263911
    30  H    3.671419   5.919579   5.046325   8.080406   8.368859
    31  C    3.381589   3.264282   4.439338   5.922462   6.579929
    32  O    2.605983   2.086912   3.714038   6.296973   7.087187
    33  C    4.506144   4.429173   5.844271   7.045204   7.616581
    34  H    4.491789   4.966720   6.071907   7.656646   8.146243
    35  H    5.407126   5.213317   6.545626   6.816190   7.297745
    36  H    4.801296   4.369714   6.208253   7.745584   8.402380
                   21         22         23         24         25
    21  H    0.000000
    22  H    1.798245   0.000000
    23  C    7.551739   6.099012   0.000000
    24  H    8.458261   7.088272   1.101941   0.000000
    25  H    7.669463   6.103296   1.102842   1.800586   0.000000
    26  H    7.633142   6.141136   1.094676   1.793730   1.789935
    27  C    8.221920   6.935818   3.929048   4.052110   3.265908
    28  H    8.056693   6.634985   3.978331   4.313008   3.091402
    29  H    8.677799   7.348049   3.288419   3.179014   2.737528
    30  H    9.016211   7.814747   4.952397   4.949934   4.296425
    31  C    6.442258   6.043302   5.521215   5.672401   5.654099
    32  O    6.745989   6.242782   4.801573   4.817009   5.146879
    33  C    7.521495   7.307857   6.835809   6.863026   6.923262
    34  H    8.243804   7.862042   6.876129   6.833404   6.834474
    35  H    7.254101   7.236212   7.606690   7.742625   7.641707
    36  H    8.117223   7.991576   7.208364   7.112716   7.430671
                   26         27         28         29         30
    26  H    0.000000
    27  C    4.940047   0.000000
    28  H    4.853370   1.101970   0.000000
    29  H    4.325196   1.102565   1.799896   0.000000
    30  H    5.976856   1.094663   1.792972   1.788692   0.000000
    31  C    6.419659   4.262822   5.005073   4.589857   4.587357
    32  O    5.667376   4.351690   5.153755   4.367331   4.822420
    33  C    7.784641   5.036729   5.874093   5.421474   5.054343
    34  H    7.894860   4.521501   5.413182   4.953319   4.330936
    35  H    8.520363   5.687056   6.411307   6.215072   5.675918
    36  H    8.134446   5.758094   6.671713   5.976594   5.778825
                   31         32         33         34         35
    31  C    0.000000
    32  O    1.280713   0.000000
    33  C    1.482184   2.372578   0.000000
    34  H    2.094236   2.906061   1.101383   0.000000
    35  H    2.125485   3.219940   1.095571   1.772089   0.000000
    36  H    2.132016   2.516394   1.093223   1.787085   1.811228
                   36
    36  H    0.000000
 Stoichiometry    C11H19O6(1+)
 Framework group  C1[X(C11H19O6)]
 Deg. of freedom   102
 Full point group                 C1      NOp   1
 Largest Abelian subgroup         C1      NOp   1
 Largest concise Abelian subgroup C1      NOp   1
                         Standard orientation:                         
 ---------------------------------------------------------------------
 Center     Atomic      Atomic             Coordinates (Angstroms)
 Number     Number       Type             X           Y           Z
 ---------------------------------------------------------------------
      1          6           0       -2.772706    0.037414   -0.395593
      2          6           0       -1.329426   -0.485776   -0.328999
      3          6           0       -0.491026    0.164231    0.755485
      4          6           0        0.917598   -0.439075    0.836725
      5          6           0        1.440671   -0.780971   -0.597535
      6          6           0        0.609572   -0.034608   -1.637987
      7          8           0       -0.718791   -0.249769   -1.640335
      8          8           0        1.738573    0.466378    1.544860
      9          8           0       -0.409135    1.644430    0.523380
     10          8           0       -3.427023   -0.208423    0.832908
     11          1           0       -3.282394   -0.435795   -1.251498
     12          1           0       -2.770069    1.125477   -0.563564
     13          1           0       -1.330444   -1.574373   -0.150596
     14          1           0       -1.013989    0.120297    1.718134
     15          1           0        0.805286   -1.397658    1.380168
     16          1           0        2.489815   -0.447095   -0.690940
     17          1           0        0.991164   -0.091774   -2.662208
     18          8           0        1.285780   -2.145590   -0.933239
     19          6           0       -4.179383   -1.431597    0.863732
     20          1           0       -4.637294   -1.484301    1.857417
     21          1           0       -4.971767   -1.422391    0.098172
     22          1           0       -3.541637   -2.320171    0.716559
     23          6           0        2.392906   -2.969654   -0.531364
     24          1           0        3.325376   -2.633136   -1.012538
     25          1           0        2.524540   -2.974627    0.563583
     26          1           0        2.153710   -3.983568   -0.867637
     27          6           0        2.885427   -0.146409    2.156410
     28          1           0        2.574790   -0.922161    2.874778
     29          1           0        3.565705   -0.588407    1.409745
     30          1           0        3.411324    0.652722    2.688489
     31          6           0        0.359628    2.161483   -0.386350
     32          8           0        0.920531    1.527187   -1.347227
     33          6           0        0.595646    3.620844   -0.279437
     34          1           0        1.423214    3.769245    0.432008
     35          1           0       -0.288718    4.117438    0.134773
     36          1           0        0.878453    4.041277   -1.248143
 ---------------------------------------------------------------------
 Rotational constants (GHZ):      0.5502097      0.3957457      0.3187758
 Leave Link  202 at Tue Oct 24 12:45:25 2017, MaxMem= 13421772800 cpu:         0.8
 (Enter /share/apps//g09/l301.exe)
 Standard basis: 6-311+G(d,p) (5D, 7F)
 Ernie: Thresh=  0.10000D-02 Tol=  0.10000D-05 Strict=F.
 There are   505 symmetry adapted cartesian basis functions of A   symmetry.
 There are   488 symmetry adapted basis functions of A   symmetry.
   488 basis functions,   764 primitive gaussians,   505 cartesian basis functions
    66 alpha electrons       66 beta electrons
       nuclear repulsion energy      1436.2133192961 Hartrees.
 IExCor= 1009 DFT=T Ex+Corr=PBE1PBE ExCW=0 ScaHFX=  0.250000
 ScaDFX=  0.750000  0.750000  1.000000  1.000000 ScalE2=  1.000000  1.000000
 IRadAn=      0 IRanWt=     -1 IRanGd=            0 ICorTp=0 IEmpDi=131
 NAtoms=   36 NActive=   36 NUniq=   36 SFac= 1.00D+00 NAtFMM=   60 NAOKFM=F Big=F
 Integral buffers will be    131072 words long.
 Raffenetti 2 integral format.
 Two-electron integral symmetry is turned on.
 R6Disp:  Grimme-D3 Dispersion energy=       -0.0248431189 Hartrees.
 Nuclear repulsion after empirical dispersion term =     1436.1884761772 Hartrees.
 Leave Link  301 at Tue Oct 24 12:45:25 2017, MaxMem= 13421772800 cpu:         1.7
 (Enter /share/apps//g09/l302.exe)
 NPDir=0 NMtPBC=     1 NCelOv=     1 NCel=       1 NClECP=     1 NCelD=      1
         NCelK=      1 NCelE2=     1 NClLst=     1 CellRange=     0.0.
 One-electron integrals computed using PRISM.
 NBasis=   488 RedAO= T EigKep=  1.58D-06  NBF=   488
 NBsUse=   488 1.00D-06 EigRej= -1.00D+00 NBFU=   488
 Precomputing XC quadrature grid using
 IXCGrd= 4 IRadAn=           0 IRanWt=          -1 IRanGd=           0 AccXCQ= 0.00D+00.
 Generated NRdTot=       0 NPtTot=           0 NUsed=           0 NTot=          32
 NSgBfM=   504   504   504   504   504 MxSgAt=    36 MxSgA2=    36.
 Leave Link  302 at Tue Oct 24 12:45:26 2017, MaxMem= 13421772800 cpu:        12.1
 (Enter /share/apps//g09/l303.exe)
 DipDrv:  MaxL=1.
 Leave Link  303 at Tue Oct 24 12:45:27 2017, MaxMem= 13421772800 cpu:         7.2
 (Enter /share/apps//g09/l401.exe)
 ExpMin= 4.38D-02 ExpMax= 8.59D+03 ExpMxC= 1.30D+03 IAcc=2 IRadAn=         4 AccDes= 0.00D+00
 Harris functional with IExCor= 1009 and IRadAn=       4 diagonalized for initial guess.
 HarFok:  IExCor= 1009 AccDes= 0.00D+00 IRadAn=         4 IDoV= 1 UseB2=F ITyADJ=14
 ICtDFT=  3500011 ScaDFX=  1.000000  1.000000  1.000000  1.000000
 FoFCou: FMM=F IPFlag=           0 FMFlag=      100000 FMFlg1=           0
         NFxFlg=           0 DoJE=T BraDBF=F KetDBF=T FulRan=T
         wScrn=  0.000000 ICntrl=     500 IOpCl=  0 I1Cent=   200000004 NGrid=           0
         NMat0=    1 NMatS0=      1 NMatT0=    0 NMatD0=    1 NMtDS0=    0 NMtDT0=    0
 Petite list used in FoFCou.
 Harris En= -881.102691553217    
 JPrj=0 DoOrth=F DoCkMO=F.
 Leave Link  401 at Tue Oct 24 12:45:28 2017, MaxMem= 13421772800 cpu:        24.5
 (Enter /share/apps//g09/l502.exe)
 Closed shell SCF:
 Using DIIS extrapolation, IDIIS=  1040.
 Integral symmetry usage will be decided dynamically.
 Keep R1 ints in memory in canonical form, NReq=7183787934.
 IVT=      797493 IEndB=      797493 NGot= 13421772800 MDV=  6302761722
 LenX=  6302761722 LenY=  6302506192
 Requested convergence on RMS density matrix=1.00D-08 within 128 cycles.
 Requested convergence on MAX density matrix=1.00D-06.
 Requested convergence on             energy=1.00D-06.
 No special actions if energy rises.
 FoFCou: FMM=F IPFlag=           0 FMFlag=           0 FMFlg1=           0
         NFxFlg=           0 DoJE=F BraDBF=F KetDBF=F FulRan=T
         wScrn=  0.000000 ICntrl=     600 IOpCl=  0 I1Cent=           0 NGrid=           0
         NMat0=    1 NMatS0= 119316 NMatT0=    0 NMatD0=    1 NMtDS0=    0 NMtDT0=    0
 Symmetry not used in FoFCou.

 Cycle   1  Pass 1  IDiag  1:
 E= -880.652039366062    
 DIIS: error= 1.56D-02 at cycle   1 NSaved=   1.
 NSaved= 1 IEnMin= 1 EnMin= -880.652039366062     IErMin= 1 ErrMin= 1.56D-02
 ErrMax= 1.56D-02  0.00D+00 EMaxC= 1.00D-01 BMatC= 3.69D-01 BMatP= 3.69D-01
 IDIUse=3 WtCom= 8.44D-01 WtEn= 1.56D-01
 Coeff-Com:  0.100D+01
 Coeff-En:   0.100D+01
 Coeff:      0.100D+01
 Gap=     0.112 Goal=   None    Shift=    0.000
 GapD=    0.112 DampG=1.000 DampE=0.500 DampFc=0.5000 IDamp=-1.
 Damping current iteration by 5.00D-01
 RMSDP=1.55D-02 MaxDP=2.22D+00              OVMax= 1.22D-01

 Cycle   2  Pass 1  IDiag  1:
 E= -880.777835666724     Delta-E=       -0.125796300662 Rises=F Damp=T
 DIIS: error= 4.55D-03 at cycle   2 NSaved=   2.
 NSaved= 2 IEnMin= 2 EnMin= -880.777835666724     IErMin= 2 ErrMin= 4.55D-03
 ErrMax= 4.55D-03  0.00D+00 EMaxC= 1.00D-01 BMatC= 2.82D-02 BMatP= 3.69D-01
 IDIUse=3 WtCom= 9.55D-01 WtEn= 4.55D-02
 Coeff-Com: -0.199D-01 0.102D+01
 Coeff-En:   0.280D-01 0.972D+00
 Coeff:     -0.177D-01 0.102D+01
 Gap=     0.228 Goal=   None    Shift=    0.000
 RMSDP=6.19D-03 MaxDP=1.05D+00 DE=-1.26D-01 OVMax= 7.70D-02

 Cycle   3  Pass 1  IDiag  1:
 E= -880.910893782230     Delta-E=       -0.133058115506 Rises=F Damp=F
 DIIS: error= 4.08D-03 at cycle   3 NSaved=   3.
 NSaved= 3 IEnMin= 3 EnMin= -880.910893782230     IErMin= 3 ErrMin= 4.08D-03
 ErrMax= 4.08D-03  0.00D+00 EMaxC= 1.00D-01 BMatC= 1.77D-02 BMatP= 2.82D-02
 IDIUse=3 WtCom= 9.59D-01 WtEn= 4.08D-02
 Coeff-Com: -0.939D-01 0.461D+00 0.633D+00
 Coeff-En:   0.000D+00 0.000D+00 0.100D+01
 Coeff:     -0.901D-01 0.442D+00 0.648D+00
 Gap=     0.197 Goal=   None    Shift=    0.000
 RMSDP=1.20D-03 MaxDP=1.93D-01 DE=-1.33D-01 OVMax= 1.83D-02

 Cycle   4  Pass 1  IDiag  1:
 E= -880.921769304293     Delta-E=       -0.010875522063 Rises=F Damp=F
 DIIS: error= 2.00D-03 at cycle   4 NSaved=   4.
 NSaved= 4 IEnMin= 4 EnMin= -880.921769304293     IErMin= 4 ErrMin= 2.00D-03
 ErrMax= 2.00D-03  0.00D+00 EMaxC= 1.00D-01 BMatC= 3.32D-03 BMatP= 1.77D-02
 IDIUse=3 WtCom= 9.80D-01 WtEn= 2.00D-02
 Coeff-Com: -0.460D-01 0.149D+00 0.358D+00 0.540D+00
 Coeff-En:   0.000D+00 0.000D+00 0.117D+00 0.883D+00
 Coeff:     -0.450D-01 0.146D+00 0.353D+00 0.546D+00
 Gap=     0.199 Goal=   None    Shift=    0.000
 RMSDP=6.73D-04 MaxDP=1.25D-01 DE=-1.09D-02 OVMax= 5.57D-03

 Cycle   5  Pass 1  IDiag  1:
 E= -880.924192150526     Delta-E=       -0.002422846233 Rises=F Damp=F
 DIIS: error= 3.02D-04 at cycle   5 NSaved=   5.
 NSaved= 5 IEnMin= 5 EnMin= -880.924192150526     IErMin= 5 ErrMin= 3.02D-04
 ErrMax= 3.02D-04  0.00D+00 EMaxC= 1.00D-01 BMatC= 1.26D-04 BMatP= 3.32D-03
 IDIUse=3 WtCom= 9.97D-01 WtEn= 3.02D-03
 Coeff-Com: -0.133D-01 0.304D-01 0.109D+00 0.240D+00 0.633D+00
 Coeff-En:   0.000D+00 0.000D+00 0.000D+00 0.000D+00 0.100D+01
 Coeff:     -0.133D-01 0.303D-01 0.109D+00 0.240D+00 0.634D+00
 Gap=     0.200 Goal=   None    Shift=    0.000
 RMSDP=2.07D-04 MaxDP=2.79D-02 DE=-2.42D-03 OVMax= 1.65D-03

 Cycle   6  Pass 1  IDiag  1:
 E= -880.924264308123     Delta-E=       -0.000072157597 Rises=F Damp=F
 DIIS: error= 1.74D-04 at cycle   6 NSaved=   6.
 NSaved= 6 IEnMin= 6 EnMin= -880.924264308123     IErMin= 6 ErrMin= 1.74D-04
 ErrMax= 1.74D-04  0.00D+00 EMaxC= 1.00D-01 BMatC= 2.75D-05 BMatP= 1.26D-04
 IDIUse=3 WtCom= 9.98D-01 WtEn= 1.74D-03
 Coeff-Com: -0.574D-02 0.105D-01 0.480D-01 0.120D+00 0.407D+00 0.420D+00
 Coeff-En:   0.000D+00 0.000D+00 0.000D+00 0.000D+00 0.133D+00 0.867D+00
 Coeff:     -0.573D-02 0.105D-01 0.479D-01 0.120D+00 0.407D+00 0.421D+00
 Gap=     0.200 Goal=   None    Shift=    0.000
 RMSDP=7.64D-05 MaxDP=6.90D-03 DE=-7.22D-05 OVMax= 8.65D-04

 Cycle   7  Pass 1  IDiag  1:
 E= -880.924283797894     Delta-E=       -0.000019489770 Rises=F Damp=F
 DIIS: error= 3.91D-05 at cycle   7 NSaved=   7.
 NSaved= 7 IEnMin= 7 EnMin= -880.924283797894     IErMin= 7 ErrMin= 3.91D-05
 ErrMax= 3.91D-05  0.00D+00 EMaxC= 1.00D-01 BMatC= 1.38D-06 BMatP= 2.75D-05
 IDIUse=1 WtCom= 1.00D+00 WtEn= 0.00D+00
 Coeff-Com: -0.188D-02 0.289D-02 0.161D-01 0.446D-01 0.171D+00 0.237D+00
 Coeff-Com:  0.530D+00
 Coeff:     -0.188D-02 0.289D-02 0.161D-01 0.446D-01 0.171D+00 0.237D+00
 Coeff:      0.530D+00
 Gap=     0.200 Goal=   None    Shift=    0.000
 RMSDP=1.34D-05 MaxDP=1.70D-03 DE=-1.95D-05 OVMax= 2.00D-04

 Cycle   8  Pass 1  IDiag  1:
 E= -880.924284849382     Delta-E=       -0.000001051489 Rises=F Damp=F
 DIIS: error= 7.90D-06 at cycle   8 NSaved=   8.
 NSaved= 8 IEnMin= 8 EnMin= -880.924284849382     IErMin= 8 ErrMin= 7.90D-06
 ErrMax= 7.90D-06  0.00D+00 EMaxC= 1.00D-01 BMatC= 8.26D-08 BMatP= 1.38D-06
 IDIUse=1 WtCom= 1.00D+00 WtEn= 0.00D+00
 Coeff-Com: -0.135D-04-0.200D-03 0.117D-03 0.247D-02 0.156D-01 0.382D-01
 Coeff-Com:  0.224D+00 0.720D+00
 Coeff:     -0.135D-04-0.200D-03 0.117D-03 0.247D-02 0.156D-01 0.382D-01
 Coeff:      0.224D+00 0.720D+00
 Gap=     0.200 Goal=   None    Shift=    0.000
 RMSDP=8.17D-06 MaxDP=1.15D-03 DE=-1.05D-06 OVMax= 4.20D-05

 Cycle   9  Pass 1  IDiag  1:
 E= -880.924284911170     Delta-E=       -0.000000061787 Rises=F Damp=F
 DIIS: error= 2.77D-06 at cycle   9 NSaved=   9.
 NSaved= 9 IEnMin= 9 EnMin= -880.924284911170     IErMin= 9 ErrMin= 2.77D-06
 ErrMax= 2.77D-06  0.00D+00 EMaxC= 1.00D-01 BMatC= 8.16D-09 BMatP= 8.26D-08
 IDIUse=1 WtCom= 1.00D+00 WtEn= 0.00D+00
 Coeff-Com:  0.682D-04-0.208D-03-0.688D-03-0.816D-03-0.106D-02 0.631D-02
 Coeff-Com:  0.795D-01 0.337D+00 0.579D+00
 Coeff:      0.682D-04-0.208D-03-0.688D-03-0.816D-03-0.106D-02 0.631D-02
 Coeff:      0.795D-01 0.337D+00 0.579D+00
 Gap=     0.200 Goal=   None    Shift=    0.000
 RMSDP=1.23D-06 MaxDP=1.39D-04 DE=-6.18D-08 OVMax= 1.42D-05

 Cycle  10  Pass 1  IDiag  1:
 E= -880.924284916756     Delta-E=       -0.000000005586 Rises=F Damp=F
 DIIS: error= 1.03D-06 at cycle  10 NSaved=  10.
 NSaved=10 IEnMin=10 EnMin= -880.924284916756     IErMin=10 ErrMin= 1.03D-06
 ErrMax= 1.03D-06  0.00D+00 EMaxC= 1.00D-01 BMatC= 1.17D-09 BMatP= 8.16D-09
 IDIUse=1 WtCom= 1.00D+00 WtEn= 0.00D+00
 Coeff-Com:  0.431D-04-0.945D-04-0.441D-03-0.834D-03-0.290D-02-0.164D-02
 Coeff-Com:  0.161D-01 0.929D-01 0.310D+00 0.587D+00
 Coeff:      0.431D-04-0.945D-04-0.441D-03-0.834D-03-0.290D-02-0.164D-02
 Coeff:      0.161D-01 0.929D-01 0.310D+00 0.587D+00
 Gap=     0.200 Goal=   None    Shift=    0.000
 RMSDP=5.76D-07 MaxDP=7.44D-05 DE=-5.59D-09 OVMax= 4.18D-06

 Cycle  11  Pass 1  IDiag  1:
 E= -880.924284917573     Delta-E=       -0.000000000818 Rises=F Damp=F
 DIIS: error= 1.85D-07 at cycle  11 NSaved=  11.
 NSaved=11 IEnMin=11 EnMin= -880.924284917573     IErMin=11 ErrMin= 1.85D-07
 ErrMax= 1.85D-07  0.00D+00 EMaxC= 1.00D-01 BMatC= 4.45D-11 BMatP= 1.17D-09
 IDIUse=1 WtCom= 1.00D+00 WtEn= 0.00D+00
 Coeff-Com:  0.111D-04-0.221D-04-0.125D-03-0.259D-03-0.101D-02-0.984D-03
 Coeff-Com:  0.158D-02 0.145D-01 0.824D-01 0.237D+00 0.667D+00
 Coeff:      0.111D-04-0.221D-04-0.125D-03-0.259D-03-0.101D-02-0.984D-03
 Coeff:      0.158D-02 0.145D-01 0.824D-01 0.237D+00 0.667D+00
 Gap=     0.200 Goal=   None    Shift=    0.000
 RMSDP=1.32D-07 MaxDP=1.95D-05 DE=-8.18D-10 OVMax= 1.02D-06

 Cycle  12  Pass 1  IDiag  1:
 E= -880.924284917627     Delta-E=       -0.000000000053 Rises=F Damp=F
 DIIS: error= 7.70D-08 at cycle  12 NSaved=  12.
 NSaved=12 IEnMin=12 EnMin= -880.924284917627     IErMin=12 ErrMin= 7.70D-08
 ErrMax= 7.70D-08  0.00D+00 EMaxC= 1.00D-01 BMatC= 8.53D-12 BMatP= 4.45D-11
 IDIUse=1 WtCom= 1.00D+00 WtEn= 0.00D+00
 Coeff-Com:  0.119D-05-0.146D-05-0.201D-04-0.479D-04-0.215D-03-0.318D-03
 Coeff-Com: -0.856D-03-0.215D-02 0.105D-01 0.633D-01 0.359D+00 0.571D+00
 Coeff:      0.119D-05-0.146D-05-0.201D-04-0.479D-04-0.215D-03-0.318D-03
 Coeff:     -0.856D-03-0.215D-02 0.105D-01 0.633D-01 0.359D+00 0.571D+00
 Gap=     0.200 Goal=   None    Shift=    0.000
 RMSDP=4.39D-08 MaxDP=5.47D-06 DE=-5.32D-11 OVMax= 3.97D-07

 Cycle  13  Pass 1  IDiag  1:
 E= -880.924284917639     Delta-E=       -0.000000000012 Rises=F Damp=F
 DIIS: error= 1.65D-08 at cycle  13 NSaved=  13.
 NSaved=13 IEnMin=13 EnMin= -880.924284917639     IErMin=13 ErrMin= 1.65D-08
 ErrMax= 1.65D-08  0.00D+00 EMaxC= 1.00D-01 BMatC= 3.40D-13 BMatP= 8.53D-12
 IDIUse=1 WtCom= 1.00D+00 WtEn= 0.00D+00
 Coeff-Com: -0.233D-06 0.825D-06 0.123D-06-0.236D-05-0.164D-04-0.486D-04
 Coeff-Com: -0.462D-03-0.171D-02-0.151D-02 0.665D-02 0.905D-01 0.222D+00
 Coeff-Com:  0.684D+00
 Coeff:     -0.233D-06 0.825D-06 0.123D-06-0.236D-05-0.164D-04-0.486D-04
 Coeff:     -0.462D-03-0.171D-02-0.151D-02 0.665D-02 0.905D-01 0.222D+00
 Coeff:      0.684D+00
 Gap=     0.200 Goal=   None    Shift=    0.000
 RMSDP=1.89D-08 MaxDP=3.64D-06 DE=-1.23D-11 OVMax= 1.11D-07

 Cycle  14  Pass 1  IDiag  1:
 E= -880.924284917621     Delta-E=        0.000000000018 Rises=F Damp=F
 DIIS: error= 9.32D-09 at cycle  14 NSaved=  14.
 NSaved=14 IEnMin=13 EnMin= -880.924284917639     IErMin=14 ErrMin= 9.32D-09
 ErrMax= 9.32D-09  0.00D+00 EMaxC= 1.00D-01 BMatC= 9.37D-14 BMatP= 3.40D-13
 IDIUse=1 WtCom= 1.00D+00 WtEn= 0.00D+00
 Coeff-Com: -0.239D-06 0.614D-06 0.192D-05 0.283D-05 0.103D-04 0.191D-06
 Coeff-Com: -0.206D-03-0.857D-03-0.200D-02-0.231D-02 0.203D-01 0.774D-01
 Coeff-Com:  0.402D+00 0.505D+00
 Coeff:     -0.239D-06 0.614D-06 0.192D-05 0.283D-05 0.103D-04 0.191D-06
 Coeff:     -0.206D-03-0.857D-03-0.200D-02-0.231D-02 0.203D-01 0.774D-01
 Coeff:      0.402D+00 0.505D+00
 Gap=     0.200 Goal=   None    Shift=    0.000
 RMSDP=5.70D-09 MaxDP=1.21D-06 DE= 1.82D-11 OVMax= 3.88D-08

 Cycle  15  Pass 1  IDiag  1:
 E= -880.924284917634     Delta-E=       -0.000000000014 Rises=F Damp=F
 DIIS: error= 1.49D-09 at cycle  15 NSaved=  15.
 NSaved=15 IEnMin=13 EnMin= -880.924284917639     IErMin=15 ErrMin= 1.49D-09
 ErrMax= 1.49D-09  0.00D+00 EMaxC= 1.00D-01 BMatC= 2.80D-15 BMatP= 9.37D-14
 IDIUse=1 WtCom= 1.00D+00 WtEn= 0.00D+00
 Coeff-Com: -0.633D-07 0.145D-06 0.711D-06 0.124D-05 0.551D-05 0.440D-05
 Coeff-Com: -0.305D-04-0.144D-03-0.606D-03-0.158D-02-0.105D-02 0.751D-02
 Coeff-Com:  0.903D-01 0.193D+00 0.713D+00
 Coeff:     -0.633D-07 0.145D-06 0.711D-06 0.124D-05 0.551D-05 0.440D-05
 Coeff:     -0.305D-04-0.144D-03-0.606D-03-0.158D-02-0.105D-02 0.751D-02
 Coeff:      0.903D-01 0.193D+00 0.713D+00
 Gap=     0.200 Goal=   None    Shift=    0.000
 RMSDP=1.09D-08 MaxDP=1.50D-06 DE=-1.36D-11 OVMax= 1.67D-08

 Cycle  16  Pass 1  IDiag  1:
 E= -880.924284917630     Delta-E=        0.000000000005 Rises=F Damp=F
 DIIS: error= 8.05D-10 at cycle  16 NSaved=  16.
 NSaved=16 IEnMin=13 EnMin= -880.924284917639     IErMin=16 ErrMin= 8.05D-10
 ErrMax= 8.05D-10  0.00D+00 EMaxC= 1.00D-01 BMatC= 3.47D-16 BMatP= 2.80D-15
 IDIUse=1 WtCom= 1.00D+00 WtEn= 0.00D+00
 Large coefficients: NSaved= 16 BigCof=    0.00 CofMax=   10.00 Det=-2.29D-15
 Inversion failed.  Reducing to 15 matrices.
 Coeff-Com: -0.363D-09 0.868D-07 0.126D-06 0.994D-06 0.105D-05 0.510D-06
 Coeff-Com: -0.185D-05-0.111D-03-0.484D-03-0.158D-02-0.154D-02 0.155D-01
 Coeff-Com:  0.520D-01 0.337D+00 0.600D+00
 Coeff:     -0.363D-09 0.868D-07 0.126D-06 0.994D-06 0.105D-05 0.510D-06
 Coeff:     -0.185D-05-0.111D-03-0.484D-03-0.158D-02-0.154D-02 0.155D-01
 Coeff:      0.520D-01 0.337D+00 0.600D+00
 Gap=     0.200 Goal=   None    Shift=    0.000
 RMSDP=6.57D-09 MaxDP=1.07D-06 DE= 4.55D-12 OVMax= 3.30D-09

 Cycle  17  Pass 1  IDiag  1:
 E= -880.924284917632     Delta-E=       -0.000000000002 Rises=F Damp=F
 DIIS: error= 2.64D-10 at cycle  17 NSaved=  16.
 NSaved=16 IEnMin=12 EnMin= -880.924284917639     IErMin=16 ErrMin= 2.64D-10
 ErrMax= 2.64D-10  0.00D+00 EMaxC= 1.00D-01 BMatC= 4.45D-17 BMatP= 3.47D-16
 IDIUse=1 WtCom= 1.00D+00 WtEn= 0.00D+00
 Large coefficients: NSaved= 16 BigCof=    0.00 CofMax=   10.00 Det=-4.08D-16
 Inversion failed.  Reducing to 15 matrices.
 Coeff-Com:  0.273D-07 0.523D-07 0.268D-06 0.337D-06 0.286D-05 0.796D-05
 Coeff-Com: -0.123D-04-0.109D-03-0.675D-03-0.142D-02-0.137D-02 0.368D-02
 Coeff-Com:  0.845D-01 0.299D+00 0.617D+00
 Coeff:      0.273D-07 0.523D-07 0.268D-06 0.337D-06 0.286D-05 0.796D-05
 Coeff:     -0.123D-04-0.109D-03-0.675D-03-0.142D-02-0.137D-02 0.368D-02
 Coeff:      0.845D-01 0.299D+00 0.617D+00
 Gap=     0.200 Goal=   None    Shift=    0.000
 RMSDP=1.23D-08 MaxDP=1.75D-06 DE=-1.82D-12 OVMax= 1.42D-09

 Cycle  18  Pass 1  IDiag  1:
 E= -880.924284917634     Delta-E=       -0.000000000003 Rises=F Damp=F
 DIIS: error= 1.19D-10 at cycle  18 NSaved=  16.
 NSaved=16 IEnMin=11 EnMin= -880.924284917639     IErMin=16 ErrMin= 1.19D-10
 ErrMax= 1.19D-10  0.00D+00 EMaxC= 1.00D-01 BMatC= 5.08D-18 BMatP= 4.45D-17
 IDIUse=1 WtCom= 1.00D+00 WtEn= 0.00D+00
 Large coefficients: NSaved= 16 BigCof=    0.00 CofMax=   10.00 Det=-4.43D-17
 Inversion failed.  Reducing to 15 matrices.
 Coeff-Com:  0.344D-08-0.238D-07-0.263D-08 0.152D-05 0.488D-05 0.102D-04
 Coeff-Com:  0.111D-04-0.132D-03-0.511D-03-0.257D-02-0.440D-02 0.556D-02
 Coeff-Com:  0.902D-01 0.305D+00 0.607D+00
 Coeff:      0.344D-08-0.238D-07-0.263D-08 0.152D-05 0.488D-05 0.102D-04
 Coeff:      0.111D-04-0.132D-03-0.511D-03-0.257D-02-0.440D-02 0.556D-02
 Coeff:      0.902D-01 0.305D+00 0.607D+00
 Gap=     0.200 Goal=   None    Shift=    0.000
 RMSDP=4.61D-09 MaxDP=7.31D-07 DE=-2.73D-12 OVMax= 3.33D-10

 SCF Done:  E(RPBE1PBE) =  -880.924284918     A.U. after   18 cycles
            NFock= 18  Conv=0.46D-08     -V/T= 2.0043
 KE= 8.771233819367D+02 PE=-4.915036067202D+03 EE= 1.720799924171D+03
 Leave Link  502 at Tue Oct 24 12:50:06 2017, MaxMem= 13421772800 cpu:      1199.1
 (Enter /share/apps//g09/l601.exe)
 Copying SCF densities to generalized density rwf, IOpCl= 0 IROHF=0.

 **********************************************************************

            Population analysis using the SCF density.

 **********************************************************************

 Orbital symmetries:
       Occupied  (A) (A) (A) (A) (A) (A) (A) (A) (A) (A) (A) (A)
                 (A) (A) (A) (A) (A) (A) (A) (A) (A) (A) (A) (A)
                 (A) (A) (A) (A) (A) (A) (A) (A) (A) (A) (A) (A)
                 (A) (A) (A) (A) (A) (A) (A) (A) (A) (A) (A) (A)
                 (A) (A) (A) (A) (A) (A) (A) (A) (A) (A) (A) (A)
                 (A) (A) (A) (A) (A) (A)
       Virtual   (A) (A) (A) (A) (A) (A) (A) (A) (A) (A) (A) (A)
                 (A) (A) (A) (A) (A) (A) (A) (A) (A) (A) (A) (A)
                 (A) (A) (A) (A) (A) (A) (A) (A) (A) (A) (A) (A)
                 (A) (A) (A) (A) (A) (A) (A) (A) (A) (A) (A) (A)
                 (A) (A) (A) (A) (A) (A) (A) (A) (A) (A) (A) (A)
                 (A) (A) (A) (A) (A) (A) (A) (A) (A) (A) (A) (A)
                 (A) (A) (A) (A) (A) (A) (A) (A) (A) (A) (A) (A)
                 (A) (A) (A) (A) (A) (A) (A) (A) (A) (A) (A) (A)
                 (A) (A) (A) (A) (A) (A) (A) (A) (A) (A) (A) (A)
                 (A) (A) (A) (A) (A) (A) (A) (A) (A) (A) (A) (A)
                 (A) (A) (A) (A) (A) (A) (A) (A) (A) (A) (A) (A)
                 (A) (A) (A) (A) (A) (A) (A) (A) (A) (A) (A) (A)
                 (A) (A) (A) (A) (A) (A) (A) (A) (A) (A) (A) (A)
                 (A) (A) (A) (A) (A) (A) (A) (A) (A) (A) (A) (A)
                 (A) (A) (A) (A) (A) (A) (A) (A) (A) (A) (A) (A)
                 (A) (A) (A) (A) (A) (A) (A) (A) (A) (A) (A) (A)
                 (A) (A) (A) (A) (A) (A) (A) (A) (A) (A) (A) (A)
                 (A) (A) (A) (A) (A) (A) (A) (A) (A) (A) (A) (A)
                 (A) (A) (A) (A) (A) (A) (A) (A) (A) (A) (A) (A)
                 (A) (A) (A) (A) (A) (A) (A) (A) (A) (A) (A) (A)
                 (A) (A) (A) (A) (A) (A) (A) (A) (A) (A) (A) (A)
                 (A) (A) (A) (A) (A) (A) (A) (A) (A) (A) (A) (A)
                 (A) (A) (A) (A) (A) (A) (A) (A) (A) (A) (A) (A)
                 (A) (A) (A) (A) (A) (A) (A) (A) (A) (A) (A) (A)
                 (A) (A) (A) (A) (A) (A) (A) (A) (A) (A) (A) (A)
                 (A) (A) (A) (A) (A) (A) (A) (A) (A) (A) (A) (A)
                 (A) (A) (A) (A) (A) (A) (A) (A) (A) (A) (A) (A)
                 (A) (A) (A) (A) (A) (A) (A) (A) (A) (A) (A) (A)
                 (A) (A) (A) (A) (A) (A) (A) (A) (A) (A) (A) (A)
                 (A) (A) (A) (A) (A) (A) (A) (A) (A) (A) (A) (A)
                 (A) (A) (A) (A) (A) (A) (A) (A) (A) (A) (A) (A)
                 (A) (A) (A) (A) (A) (A) (A) (A) (A) (A) (A) (A)
                 (A) (A) (A) (A) (A) (A) (A) (A) (A) (A) (A) (A)
                 (A) (A) (A) (A) (A) (A) (A) (A) (A) (A) (A) (A)
                 (A) (A) (A) (A) (A) (A) (A) (A) (A) (A) (A) (A)
                 (A) (A)
 The electronic state is 1-A.
 Alpha  occ. eigenvalues --  -19.44984 -19.44210 -19.40688 -19.36511 -19.36221
 Alpha  occ. eigenvalues --  -19.33485 -10.57096 -10.51483 -10.46466 -10.44700
 Alpha  occ. eigenvalues --  -10.44600 -10.44503 -10.40619 -10.39763 -10.39484
 Alpha  occ. eigenvalues --  -10.38817 -10.37321  -1.35144  -1.28016  -1.26018
 Alpha  occ. eigenvalues --   -1.22328  -1.21183  -1.18817  -1.01142  -0.97943
 Alpha  occ. eigenvalues --   -0.94708  -0.89679  -0.87033  -0.85690  -0.83154
 Alpha  occ. eigenvalues --   -0.81734  -0.78638  -0.77102  -0.76019  -0.72442
 Alpha  occ. eigenvalues --   -0.71150  -0.68160  -0.67142  -0.66595  -0.65897
 Alpha  occ. eigenvalues --   -0.63754  -0.63681  -0.63104  -0.61735  -0.61148
 Alpha  occ. eigenvalues --   -0.60267  -0.59486  -0.58711  -0.57946  -0.57580
 Alpha  occ. eigenvalues --   -0.56939  -0.56454  -0.55539  -0.54596  -0.53853
 Alpha  occ. eigenvalues --   -0.53358  -0.52753  -0.50456  -0.49275  -0.48630
 Alpha  occ. eigenvalues --   -0.48152  -0.47441  -0.45486  -0.44568  -0.41164
 Alpha  occ. eigenvalues --   -0.40019
 Alpha virt. eigenvalues --   -0.20023  -0.12091  -0.11732  -0.09906  -0.09783
 Alpha virt. eigenvalues --   -0.08568  -0.08003  -0.07429  -0.07170  -0.06789
 Alpha virt. eigenvalues --   -0.06378  -0.05928  -0.05236  -0.05025  -0.04516
 Alpha virt. eigenvalues --   -0.04042  -0.03750  -0.03198  -0.02760  -0.02454
 Alpha virt. eigenvalues --   -0.02017  -0.01649  -0.01288  -0.00951  -0.00583
 Alpha virt. eigenvalues --   -0.00055   0.00166   0.00348   0.01285   0.01425
 Alpha virt. eigenvalues --    0.01527   0.02023   0.02583   0.02673   0.03202
 Alpha virt. eigenvalues --    0.03565   0.03969   0.04931   0.04974   0.05622
 Alpha virt. eigenvalues --    0.05874   0.06131   0.06538   0.06903   0.07082
 Alpha virt. eigenvalues --    0.07387   0.07754   0.08113   0.08424   0.09034
 Alpha virt. eigenvalues --    0.09356   0.09571   0.09881   0.10051   0.10686
 Alpha virt. eigenvalues --    0.11056   0.11225   0.11541   0.11776   0.12152
 Alpha virt. eigenvalues --    0.12267   0.12960   0.13273   0.14097   0.14314
 Alpha virt. eigenvalues --    0.14582   0.15242   0.15666   0.16011   0.16371
 Alpha virt. eigenvalues --    0.16775   0.17090   0.17661   0.18232   0.19043
 Alpha virt. eigenvalues --    0.19104   0.19525   0.19921   0.20905   0.21313
 Alpha virt. eigenvalues --    0.21816   0.22095   0.22486   0.22976   0.23160
 Alpha virt. eigenvalues --    0.23479   0.24358   0.25023   0.25339   0.25698
 Alpha virt. eigenvalues --    0.26026   0.26769   0.27403   0.27941   0.28787
 Alpha virt. eigenvalues --    0.29337   0.29819   0.29992   0.30994   0.31426
 Alpha virt. eigenvalues --    0.32202   0.32790   0.33088   0.33927   0.34857
 Alpha virt. eigenvalues --    0.35360   0.35634   0.36185   0.36867   0.37368
 Alpha virt. eigenvalues --    0.38415   0.39622   0.41037   0.41551   0.42172
 Alpha virt. eigenvalues --    0.43227   0.44435   0.44997   0.45424   0.45793
 Alpha virt. eigenvalues --    0.46227   0.46572   0.47568   0.49198   0.49933
 Alpha virt. eigenvalues --    0.50657   0.50774   0.51187   0.52135   0.52876
 Alpha virt. eigenvalues --    0.53932   0.54424   0.55249   0.55905   0.56083
 Alpha virt. eigenvalues --    0.56675   0.57305   0.57567   0.58722   0.59221
 Alpha virt. eigenvalues --    0.59653   0.60641   0.60826   0.61515   0.62344
 Alpha virt. eigenvalues --    0.62443   0.62726   0.63664   0.63939   0.65053
 Alpha virt. eigenvalues --    0.65386   0.66602   0.66766   0.68483   0.69045
 Alpha virt. eigenvalues --    0.71035   0.72766   0.76506   0.78746   0.79518
 Alpha virt. eigenvalues --    0.81384   0.84875   0.87253   0.88790   0.90748
 Alpha virt. eigenvalues --    0.91267   0.92192   0.92632   0.94702   0.95414
 Alpha virt. eigenvalues --    0.95891   0.96957   0.98956   0.99642   1.01792
 Alpha virt. eigenvalues --    1.02243   1.03342   1.04282   1.05505   1.07973
 Alpha virt. eigenvalues --    1.08284   1.09723   1.11600   1.12398   1.13300
 Alpha virt. eigenvalues --    1.15303   1.15974   1.16893   1.18219   1.20334
 Alpha virt. eigenvalues --    1.20732   1.21755   1.22038   1.23983   1.24745
 Alpha virt. eigenvalues --    1.25424   1.27022   1.28038   1.28996   1.30845
 Alpha virt. eigenvalues --    1.31128   1.32201   1.33056   1.33599   1.34710
 Alpha virt. eigenvalues --    1.34990   1.35490   1.38247   1.38546   1.39100
 Alpha virt. eigenvalues --    1.40651   1.41733   1.42138   1.43702   1.44310
 Alpha virt. eigenvalues --    1.45048   1.45395   1.46449   1.46626   1.46959
 Alpha virt. eigenvalues --    1.47603   1.47807   1.48398   1.49372   1.50627
 Alpha virt. eigenvalues --    1.51262   1.52237   1.53839   1.53960   1.55700
 Alpha virt. eigenvalues --    1.56604   1.57354   1.58007   1.58062   1.58815
 Alpha virt. eigenvalues --    1.59106   1.59427   1.60477   1.61915   1.63053
 Alpha virt. eigenvalues --    1.64524   1.65099   1.66311   1.68353   1.68633
 Alpha virt. eigenvalues --    1.69844   1.70150   1.71405   1.72382   1.74395
 Alpha virt. eigenvalues --    1.76655   1.77717   1.78821   1.79203   1.80140
 Alpha virt. eigenvalues --    1.81613   1.82456   1.84358   1.86336   1.89064
 Alpha virt. eigenvalues --    1.90407   1.91482   1.91670   1.92929   1.95709
 Alpha virt. eigenvalues --    1.96650   1.98667   2.00158   2.00468   2.01795
 Alpha virt. eigenvalues --    2.03061   2.03267   2.05354   2.06289   2.07063
 Alpha virt. eigenvalues --    2.08739   2.10094   2.11143   2.12593   2.14156
 Alpha virt. eigenvalues --    2.16993   2.18232   2.18465   2.20061   2.21151
 Alpha virt. eigenvalues --    2.23122   2.32075   2.32930   2.33088   2.33864
 Alpha virt. eigenvalues --    2.34253   2.37813   2.39324   2.39889   2.40181
 Alpha virt. eigenvalues --    2.41092   2.41728   2.41911   2.42424   2.43387
 Alpha virt. eigenvalues --    2.44027   2.44596   2.45677   2.46539   2.47632
 Alpha virt. eigenvalues --    2.48263   2.48461   2.48913   2.49673   2.53627
 Alpha virt. eigenvalues --    2.55866   2.56586   2.60687   2.61023   2.61808
 Alpha virt. eigenvalues --    2.62719   2.67190   2.68491   2.70460   2.71838
 Alpha virt. eigenvalues --    2.72996   2.73606   2.74062   2.76921   2.77498
 Alpha virt. eigenvalues --    2.79097   2.79539   2.81951   2.84226   2.86655
 Alpha virt. eigenvalues --    2.87474   2.88883   2.91311   2.93280   2.94290
 Alpha virt. eigenvalues --    2.95468   2.96610   2.96956   2.98111   2.98443
 Alpha virt. eigenvalues --    2.99286   3.00613   3.02559   3.04257   3.05353
 Alpha virt. eigenvalues --    3.06323   3.08415   3.09249   3.10212   3.12329
 Alpha virt. eigenvalues --    3.14220   3.15553   3.16633   3.19503   3.20645
 Alpha virt. eigenvalues --    3.24147   3.27464   3.30669   3.35930   3.38946
 Alpha virt. eigenvalues --    3.48605   3.62473   3.65655   3.66900   3.66932
 Alpha virt. eigenvalues --    3.68531   3.68900   3.69701   3.70513   3.72026
 Alpha virt. eigenvalues --    3.74354   3.77490   3.82318   3.86535   3.88784
 Alpha virt. eigenvalues --    3.93823   3.95641   3.95805   3.98789   4.00487
 Alpha virt. eigenvalues --    4.03433   4.07631   4.07842   4.09640   4.13041
 Alpha virt. eigenvalues --    4.19266   4.24349   4.95193   4.97644   5.03087
 Alpha virt. eigenvalues --    5.03742   5.04695   5.05281   5.14219   5.21008
 Alpha virt. eigenvalues --    5.27101   5.31116   5.31380   5.33154   5.46967
 Alpha virt. eigenvalues --    5.56340   5.58332   5.60989   5.64069   5.81163
 Alpha virt. eigenvalues --   23.68372  23.72746  23.75739  23.77436  23.80383
 Alpha virt. eigenvalues --   23.83744  23.88468  23.89240  23.89485  23.90159
 Alpha virt. eigenvalues --   23.90971  49.88906  49.89877  49.94158  49.95240
 Alpha virt. eigenvalues --   49.97355  50.01075
          Condensed to atoms (all electrons):
               1          2          3          4          5          6
     1  C   10.315585  -3.831222   0.726187  -1.063090  -0.136133   0.203689
     2  C   -3.831222  15.484036  -5.753584   2.122698   0.956422  -2.859069
     3  C    0.726187  -5.753584  19.324950 -10.527825   3.891644  -2.318238
     4  C   -1.063090   2.122698 -10.527825  20.972615 -10.065850   5.743104
     5  C   -0.136133   0.956422   3.891644 -10.065850  21.025460 -11.040148
     6  C    0.203689  -2.859069  -2.318238   5.743104 -11.040148  17.683088
     7  O   -0.256981   0.075013  -0.165868   0.236222  -0.325608   0.593605
     8  O   -0.013635   0.027238  -0.004231  -0.044881   0.109792  -0.084053
     9  O   -0.016862  -0.110961  -0.162639   0.349972  -0.397440   0.417653
    10  O    0.192271  -0.026930  -0.075819   0.052497  -0.029709   0.041031
    11  H    0.420290  -0.078231   0.015841  -0.002528   0.003360  -0.002530
    12  H    0.284373   0.042303  -0.009788   0.015418  -0.019911   0.032465
    13  H    0.016667   0.217804   0.044521  -0.031203  -0.027964   0.062642
    14  H    0.018120  -0.075052   0.357079   0.033575   0.014287  -0.017777
    15  H    0.005178  -0.007524   0.123131   0.339695  -0.123984   0.002106
    16  H    0.002575  -0.013401  -0.038178  -0.017441   0.289315   0.140551
    17  H   -0.002487  -0.008784   0.043409  -0.065362   0.140659   0.211011
    18  O    0.010137   0.019669  -0.010924  -0.008210   0.201670  -0.108975
    19  C   -0.286368   0.084388   0.029835  -0.009451   0.005075   0.000900
    20  H    0.026274  -0.005120  -0.003290  -0.000609  -0.000428   0.000299
    21  H    0.021133  -0.027501  -0.000733  -0.001348  -0.000542   0.000943
    22  H   -0.064915   0.060326  -0.001456   0.008295   0.003259  -0.001301
    23  C   -0.019607   0.050492  -0.023208   0.076495  -0.164653  -0.174680
    24  H   -0.000514  -0.006012  -0.011636  -0.013695  -0.022535   0.041716
    25  H    0.002714   0.012264   0.034786   0.063158  -0.082937  -0.017850
    26  H   -0.000578  -0.000214  -0.003011  -0.011494   0.056221  -0.009894
    27  C   -0.008800  -0.000623  -0.281735  -0.043822   0.005265   0.071431
    28  H    0.001288  -0.000592   0.065892  -0.033014  -0.032827  -0.005364
    29  H   -0.000657  -0.003434  -0.026153  -0.096436   0.108021   0.010101
    30  H   -0.000119   0.001275  -0.007742   0.057177  -0.010734  -0.001452
    31  C    0.009736   0.161783   0.015616  -0.822761   1.146847  -1.362700
    32  O   -0.041208   0.236371   0.019240  -0.109491  -0.001019   0.057123
    33  C    0.051866  -0.338917   0.764739  -0.642682   0.665669  -0.834076
    34  H    0.000567  -0.001771   0.000132  -0.002843  -0.008330   0.005137
    35  H    0.003821  -0.006148   0.004385  -0.003273  -0.003289   0.004580
    36  H   -0.001184   0.001825  -0.008641   0.005583   0.006276  -0.008102
               7          8          9         10         11         12
     1  C   -0.256981  -0.013635  -0.016862   0.192271   0.420290   0.284373
     2  C    0.075013   0.027238  -0.110961  -0.026930  -0.078231   0.042303
     3  C   -0.165868  -0.004231  -0.162639  -0.075819   0.015841  -0.009788
     4  C    0.236222  -0.044881   0.349972   0.052497  -0.002528   0.015418
     5  C   -0.325608   0.109792  -0.397440  -0.029709   0.003360  -0.019911
     6  C    0.593605  -0.084053   0.417653   0.041031  -0.002530   0.032465
     7  O    7.807063  -0.002788   0.047802   0.021159   0.002650   0.010749
     8  O   -0.002788   7.995037   0.018336  -0.000155   0.000102  -0.000094
     9  O    0.047802   0.018336   7.872260   0.007802  -0.001813   0.018654
    10  O    0.021159  -0.000155   0.007802   7.940363  -0.029436  -0.053939
    11  H    0.002650   0.000102  -0.001813  -0.029436   0.476285  -0.024006
    12  H    0.010749  -0.000094   0.018654  -0.053939  -0.024006   0.480470
    13  H   -0.012391  -0.001168   0.012394  -0.004681  -0.008706   0.004310
    14  H    0.005240  -0.004130  -0.045229   0.012098   0.000254  -0.000831
    15  H   -0.000439  -0.036742   0.004190  -0.000221  -0.000022   0.000028
    16  H    0.005643  -0.002408   0.003093   0.000029  -0.000003   0.000013
    17  H   -0.058135  -0.000032  -0.005991  -0.000019   0.000033  -0.000088
    18  O    0.016722   0.000409  -0.001942  -0.000122  -0.000004  -0.000018
    19  C   -0.007201  -0.000425  -0.003997   0.138046   0.001410   0.000758
    20  H    0.000152   0.000003   0.000019  -0.053785  -0.000226  -0.000124
    21  H    0.000648   0.000003   0.000045  -0.035335   0.007187   0.001308
    22  H   -0.001974  -0.000002   0.000004  -0.049458  -0.001647  -0.000971
    23  C    0.004094  -0.009729  -0.001929  -0.000030  -0.000046   0.000031
    24  H    0.000232   0.001061   0.000006   0.000001  -0.000000  -0.000000
    25  H   -0.000351  -0.003900  -0.000057  -0.000004   0.000000  -0.000000
    26  H   -0.000240   0.000030  -0.000004  -0.000002  -0.000000  -0.000000
    27  C    0.002122   0.121435   0.009469   0.000209   0.000013   0.000029
    28  H   -0.000011  -0.043393  -0.000217   0.000000  -0.000000  -0.000000
    29  H   -0.000154  -0.025784  -0.000134  -0.000001   0.000000  -0.000000
    30  H   -0.000001  -0.070933  -0.000427  -0.000001   0.000000  -0.000000
    31  C    0.003911   0.082701   0.311658  -0.009760  -0.000317   0.004999
    32  O   -0.092649   0.020501  -0.114603  -0.001311   0.000487  -0.001666
    33  C    0.001803  -0.070011  -0.446611  -0.004239  -0.001686  -0.012349
    34  H    0.000190  -0.001216  -0.001739   0.000011   0.000000   0.000001
    35  H    0.000039   0.000661  -0.013608   0.000029  -0.000001   0.000012
    36  H   -0.000238   0.000111   0.016474  -0.000001  -0.000000  -0.000027
              13         14         15         16         17         18
     1  C    0.016667   0.018120   0.005178   0.002575  -0.002487   0.010137
     2  C    0.217804  -0.075052  -0.007524  -0.013401  -0.008784   0.019669
     3  C    0.044521   0.357079   0.123131  -0.038178   0.043409  -0.010924
     4  C   -0.031203   0.033575   0.339695  -0.017441  -0.065362  -0.008210
     5  C   -0.027964   0.014287  -0.123984   0.289315   0.140659   0.201670
     6  C    0.062642  -0.017777   0.002106   0.140551   0.211011  -0.108975
     7  O   -0.012391   0.005240  -0.000439   0.005643  -0.058135   0.016722
     8  O   -0.001168  -0.004130  -0.036742  -0.002408  -0.000032   0.000409
     9  O    0.012394  -0.045229   0.004190   0.003093  -0.005991  -0.001942
    10  O   -0.004681   0.012098  -0.000221   0.000029  -0.000019  -0.000122
    11  H   -0.008706   0.000254  -0.000022  -0.000003   0.000033  -0.000004
    12  H    0.004310  -0.000831   0.000028   0.000013  -0.000088  -0.000018
    13  H    0.449498  -0.000378   0.000491  -0.000173   0.000030  -0.003584
    14  H   -0.000378   0.391295  -0.006502  -0.000007   0.000121  -0.000329
    15  H    0.000491  -0.006502   0.447240  -0.000290  -0.000182   0.000633
    16  H   -0.000173  -0.000007  -0.000290   0.451466  -0.005778  -0.038905
    17  H    0.000030   0.000121  -0.000182  -0.005778   0.441023   0.003319
    18  O   -0.003584  -0.000329   0.000633  -0.038905   0.003319   7.887011
    19  C    0.000142  -0.003203  -0.000876  -0.000023  -0.000113  -0.000020
    20  H   -0.000137   0.000021   0.000002  -0.000000  -0.000000   0.000000
    21  H   -0.000419  -0.000033   0.000004  -0.000000   0.000000   0.000004
    22  H    0.003563   0.000262  -0.000068  -0.000000  -0.000001  -0.000052
    23  C   -0.003340   0.000158   0.004205  -0.004814  -0.000595   0.126831
    24  H   -0.000012  -0.000000   0.000312   0.012145  -0.000366  -0.043697
    25  H   -0.000036   0.000033  -0.000578  -0.004371   0.000108  -0.021809
    26  H   -0.000141   0.000002  -0.000189  -0.000243   0.000012  -0.069303
    27  C    0.001072   0.001066  -0.002042   0.007590   0.000140  -0.001347
    28  H   -0.000003  -0.000249   0.012313   0.000377  -0.000004   0.001425
    29  H   -0.000006   0.000095  -0.004563   0.000038   0.000053  -0.003976
    30  H   -0.000004  -0.000015  -0.000190  -0.000221  -0.000000   0.000048
    31  C    0.016417   0.031472  -0.004008  -0.022471   0.057982  -0.009069
    32  O   -0.005982  -0.003600   0.001138   0.008574  -0.060068   0.010634
    33  C    0.005576   0.011146   0.000760  -0.021206   0.024100   0.006961
    34  H    0.000001   0.000003  -0.000010   0.000081   0.000004   0.000011
    35  H    0.000010   0.000042   0.000002   0.000002   0.000016  -0.000004
    36  H   -0.000004   0.000015   0.000001  -0.000000   0.000002  -0.000005
              19         20         21         22         23         24
     1  C   -0.286368   0.026274   0.021133  -0.064915  -0.019607  -0.000514
     2  C    0.084388  -0.005120  -0.027501   0.060326   0.050492  -0.006012
     3  C    0.029835  -0.003290  -0.000733  -0.001456  -0.023208  -0.011636
     4  C   -0.009451  -0.000609  -0.001348   0.008295   0.076495  -0.013695
     5  C    0.005075  -0.000428  -0.000542   0.003259  -0.164653  -0.022535
[...]
 74277,-0.00118771,0.00107138,-0.00103588,0.00008690,0.00003107,0.00009
 646,0.00006857,-0.00030236,0.00011765,0.00019067,-0.00011928,0.0000495
 3,0.00121665,0.00199242,-0.00151533,0.00007631,-0.00017103,-0.00005133
 ,-0.00058609,-0.00063076,0.00005384,-0.00060021,-0.00026123,0.00029962
 ,-0.00068036,-0.00099011,0.00087737,-0.00012421,-0.00008321,-0.0001932
 3,0.00084402,0.00013806,-0.00063227,0.00012238,0.00034293,-0.00000352,
 0.08912227,0.18073912,0.73035379,-0.00145559,-0.00044229,0.00071431,0.
 00370207,0.00536331,0.00880385,-0.00881856,0.00103470,-0.00201487,0.00
 379823,0.00294550,0.00344356,-0.03009527,0.03378078,0.00186660,-0.0561
 4198,-0.03059014,0.00660986,-0.00010741,0.02534615,-0.03843855,-0.0007
 4140,-0.00415103,-0.00093714,0.04043867,-0.00359754,0.00070155,0.00007
 484,-0.00028353,-0.00135472,0.00001427,-0.00026106,0.00030894,0.000195
 91,0.00025233,-0.00018773,-0.00086899,-0.00194677,-0.00103224,0.001617
 78,-0.00065967,-0.00023910,0.00060861,0.00054639,-0.00058436,-0.000096
 23,0.00032470,0.00010238,-0.01034846,0.00728628,-0.00054746,-0.0131432
 4,-0.00778846,0.00357795,0.00003652,-0.00018820,0.00012672,-0.00003004
 ,0.00000739,-0.00006670,0.00001075,0.00003612,0.00000742,0.00013813,-0
 .00001046,0.00002664,0.00151095,0.00308087,-0.00377668,0.00009764,-0.0
 0022042,0.00032879,-0.00070295,-0.00056558,0.00015764,-0.00098770,-0.0
 0050766,0.00052389,0.00003082,0.00011089,-0.00022852,-0.00010749,-0.00
 009286,0.00008627,0.00012100,0.00009078,-0.00028479,-0.00007727,-0.000
 14348,0.00000399,-0.16463587,0.09309499,0.06145360,0.25613635,0.001805
 52,0.00051928,-0.00095555,-0.00541402,-0.00916919,-0.01290756,0.014740
 05,-0.00556306,0.00786693,-0.00116778,-0.00225312,-0.00026570,-0.00111
 732,-0.00200761,-0.00170551,-0.02117083,-0.01919090,-0.02574339,0.0236
 4811,-0.03379354,0.05088000,-0.00328203,0.00070378,-0.00109805,-0.0117
 6211,0.01242770,-0.05344698,0.00000317,0.00059566,0.00187600,-0.000173
 42,0.00046281,-0.00052253,-0.00047189,-0.00043032,0.00013355,0.0013535
 2,0.00255468,0.00220103,-0.00131592,0.00092707,0.00016858,-0.00058252,
 0.00026969,0.00144815,0.00064821,0.00045998,-0.00008102,0.03138490,-0.
 01573343,0.00120784,0.00160192,0.00286862,-0.00010766,-0.00012847,0.00
 022497,-0.00009976,0.00003537,-0.00001737,0.00009565,-0.00000136,-0.00
 001954,-0.00002699,-0.00015848,-0.00000614,-0.00006500,-0.00131392,-0.
 00041056,0.00095241,0.00000103,0.00002154,-0.00010181,0.00047230,0.000
 28173,-0.00007707,0.00014057,0.00007400,-0.00000440,0.00034129,0.00086
 681,-0.00136626,-0.00028966,-0.00020745,0.00017140,-0.00012112,-0.0001
 0029,0.00039628,0.00005439,0.00009392,0.00003936,0.10413340,-0.1985924
 6,-0.13817336,-0.15725200,0.28232410,0.00092604,0.00012013,0.00076969,
 -0.00478580,-0.00190213,-0.00145494,0.01940127,-0.00246110,0.00559888,
 -0.00135446,0.00004076,-0.00395725,-0.00243843,-0.00867557,0.00173901,
 -0.01429741,0.00727796,-0.08193217,-0.02455760,0.02606540,0.00215499,-
 0.00037836,0.00130730,0.00254410,-0.00935863,-0.04708896,-0.08615013,-
 0.00055094,0.00056914,-0.00029155,-0.00024725,0.00021885,-0.00026178,-
 0.00046171,-0.00055923,0.00021543,0.00007705,0.00137557,-0.00026771,-0
 .00172885,0.00044535,0.00075633,-0.00024118,0.00001750,0.00163294,-0.0
 0052481,-0.00112350,0.00122624,0.02128564,-0.01309407,0.00361805,0.006
 61483,0.00193760,0.00155129,0.00050669,-0.00038682,0.00041909,-0.00001
 382,-0.00002566,-0.00003160,-0.00003039,0.00011285,-0.00003979,-0.0000
 7846,0.00004662,0.00000968,-0.00119856,-0.00090076,0.00160700,-0.00013
 354,0.00009231,-0.00006925,0.00048161,0.00038769,-0.00010188,0.0003501
 6,0.00014918,-0.00017775,0.00023967,0.00025979,-0.00060477,0.00002370,
 0.00002120,0.00009995,-0.00034845,-0.00006036,0.00034176,-0.00002241,-
 0.00006801,-0.00001027,0.07829757,-0.14954022,-0.28859124,-0.07233976,
 0.19769807,0.43654929,-0.00015876,-0.00008868,0.00027831,-0.00103916,0
 .00046249,0.00013474,0.00542440,0.00177640,0.00012852,0.00007534,0.000
 34632,-0.00015329,0.00028631,-0.00038903,0.00000818,0.00590410,-0.0011
 5914,-0.00013364,-0.00058943,0.00087749,-0.00161135,-0.00003246,-0.000
 32073,0.00005626,-0.02436571,0.01111902,-0.02112972,-0.00005201,0.0001
 0151,-0.00026696,-0.00001426,0.00002315,-0.00003936,-0.00000119,-0.000
 10173,-0.00000160,-0.00000006,0.00030772,-0.00005617,0.00006736,-0.000
 01566,0.00000410,-0.00006950,0.00001225,0.00002978,-0.00002294,-0.0000
 1679,0.00001728,-0.00045360,0.00010519,-0.00001355,-0.00008896,0.00004
 771,0.00013904,0.00009039,-0.00008725,0.00009720,-0.00000780,-0.000004
 12,-0.00001449,-0.00000299,0.00002954,-0.00000756,0.00000950,0.0000031
 9,-0.00000250,0.00013966,0.00001462,-0.00006687,-0.00000691,-0.0000074
 3,0.00001672,-0.00000652,-0.00000440,0.00001122,-0.00000582,0.00000863
 ,-0.00000859,0.00018267,0.00024368,-0.00012303,-0.00002840,-0.00000646
 ,0.00000486,-0.00002612,-0.00000319,0.00001566,-0.00002326,-0.00003128
 ,0.00001836,-0.20448052,0.06404704,-0.01542969,-0.01426817,0.02079760,
 0.00540786,0.54435928,-0.00021063,-0.00003580,-0.00023922,-0.00191329,
 0.00008301,-0.00087398,-0.00101325,0.00668265,-0.00388012,0.00170480,-
 0.00090663,0.00034538,0.00033136,-0.00148393,0.00036819,-0.00186405,0.
 00888940,-0.00311358,-0.00029073,-0.00043371,0.00115827,-0.00019677,0.
 00050156,0.00012385,0.00152678,0.00811393,0.00396541,0.00020316,-0.000
 03235,0.00039151,0.00002770,0.00000083,0.00001794,0.00009662,0.0000081
 7,-0.00008200,0.00014768,0.00037653,0.00009667,0.00021989,0.00001022,-
 0.00013522,0.00015117,0.00010960,-0.00042049,-0.00008580,-0.00013297,0
 .00003189,0.00003569,0.00000096,0.00008116,0.00151052,0.00029421,-0.00
 029918,-0.00012917,0.00013906,-0.00010671,0.00002408,-0.00000100,0.000
 02024,0.00000392,-0.00002979,0.00000003,0.00000281,-0.00001389,-0.0000
 0639,-0.00032671,-0.00031856,0.00046120,-0.00001642,0.00003316,-0.0000
 4964,0.00004218,0.00006927,-0.00000821,0.00009283,0.00002543,-0.000053
 61,-0.00019466,-0.00021108,0.00014467,0.00003622,-0.00001147,-0.000009
 79,0.00001468,-0.00001095,0.00003130,0.00002216,0.00005139,-0.00001754
 ,0.05385735,-0.11198110,0.01362841,0.03126738,-0.01739576,-0.01533767,
 0.02723904,0.52078486,-0.00001206,-0.00000753,0.00015862,-0.00170028,-
 0.00132191,-0.00170727,0.00386583,-0.00092554,-0.00153122,-0.00055926,
 0.00026402,-0.00090666,-0.00040561,-0.00079750,-0.00029600,-0.00640148
 ,0.00176153,-0.00427688,0.00109206,-0.00166445,0.00463092,0.00016400,-
 0.00006446,0.00045165,-0.04367889,0.01443525,-0.01394334,-0.00001046,0
 .00016207,-0.00001447,0.00002153,0.00006372,-0.00010189,-0.00000217,-0
 .00003995,0.00000960,0.00017464,0.00063871,0.00012553,-0.00112111,0.00
 041646,0.00002731,-0.00006106,-0.00012036,0.00042144,0.00002481,0.0001
 1822,0.00011764,0.00150025,-0.00063345,0.00009413,0.00044089,0.0002971
 1,0.00004960,0.00005111,-0.00003573,0.00007002,0.00000173,-0.00000554,
 0.,-0.00000258,0.00002160,-0.00001272,0.00000071,-0.00000379,-0.000012
 46,-0.00008017,-0.00008610,0.00007317,0.00000074,0.00000665,0.00000332
 ,0.00005625,0.00003944,-0.00001195,0.00003441,0.00001631,-0.00001077,0
 .00008910,0.00006429,-0.00009007,0.00001651,0.00000528,0.00001354,-0.0
 0006291,0.00000134,0.00004275,-0.00002066,-0.00003939,-0.00000611,-0.0
 1641158,0.01407026,-0.08281721,0.03068281,-0.02868122,0.00317648,0.009
 89492,0.03835927,0.60854759,0.00000435,-0.00001329,0.00004479,0.000278
 33,-0.00014360,0.00015980,0.00000903,-0.00144953,0.00036863,-0.0005232
 4,0.00089262,-0.00046010,-0.00008113,0.00039957,-0.00009998,-0.0004317
 1,-0.00166018,0.00057134,0.00007199,0.00000114,-0.00002281,0.00072063,
 -0.00046289,0.00017465,-0.00217055,-0.00056508,-0.00010279,-0.00002475
 ,0.00001858,-0.00006414,-0.00000482,0.00000331,-0.00000675,-0.00002917
 ,-0.00000710,0.00001835,-0.00001724,-0.00000471,-0.00001870,-0.0002349
 3,0.00004972,0.00001592,0.00000533,-0.00013357,0.00021218,0.00000865,0
 .00005321,0.00004173,0.00002709,-0.00002144,-0.00000709,-0.00030515,-0
 .00015460,0.00006637,0.00002267,-0.00002265,0.00001541,-0.00000285,0.0
 0000107,-0.00000412,-0.00000262,0.00000581,-0.00000134,0.00000069,0.00
 000237,0.00000143,0.00005303,0.00007160,-0.00009281,0.00000360,-0.0000
 0085,0.00001378,-0.00002155,-0.00001561,-0.00001041,-0.00002119,-0.000
 01260,0.00001251,-0.00015956,-0.00015588,0.00012589,0.00007743,0.00001
 602,0.00000752,0.00002818,0.00000081,-0.00005159,-0.00007473,-0.000084
 76,0.00001993,0.00997654,0.02991042,-0.01047641,-0.00310128,0.00058953
 ,0.00222934,-0.05761836,-0.05801318,0.01515092,0.06074908,0.00001054,-
 0.00001547,0.00011415,-0.00014944,0.00008354,0.00004052,0.00101161,-0.
 00002923,0.00023172,0.00002122,-0.00004620,0.00000957,0.00014797,-0.00
 025738,-0.00000636,0.00118720,0.00007494,-0.00021824,-0.00024954,0.000
 24293,-0.00026792,-0.00037946,-0.00023645,-0.00007569,-0.00136095,0.00
 093174,-0.00292287,-0.00005020,0.00003225,-0.00012005,-0.00000961,0.00
 000827,-0.00001630,-0.00002499,-0.00002390,0.00001082,0.00000043,0.000
 05378,-0.00000201,0.00000253,0.00000913,0.00000752,-0.00007352,0.00003
 768,0.00002661,0.00001093,0.00000679,-0.00001769,-0.00007298,-0.000001
 47,0.00000158,-0.00007447,0.00007787,0.00002422,0.00004410,-0.00004287
 ,0.00004374,-0.00000532,-0.00000089,-0.00000686,-0.00000208,0.00001189
 ,-0.00000235,0.00000107,0.00000335,-0.00000041,0.00007695,0.00001483,-
 0.00002337,-0.00000156,-0.00000445,0.00000602,0.00000306,-0.00000315,0
 .00000147,-0.00000305,0.00000546,-0.00000225,0.00012064,0.00031745,-0.
 00017507,-0.00005795,-0.00003567,0.00001730,-0.00001575,-0.00003398,0.
 00002658,-0.00002390,-0.00001920,0.00003561,-0.00027106,-0.02138444,0.
 00571947,0.00051444,0.00155980,0.00125505,-0.06161329,-0.27659657,0.07
 122258,0.06220943,0.30220035,0.00006454,0.00002391,0.00003297,0.000120
 99,-0.00004469,-0.00001264,-0.00017327,-0.00071387,0.00027449,-0.00017
 916,0.00013877,-0.00017540,0.00001328,-0.00022313,0.00011900,0.0001416
 6,0.00053322,-0.00025439,-0.00004706,0.00001423,0.00002798,0.00013050,
 -0.00006169,-0.00022368,-0.00187751,-0.00010203,-0.00049074,-0.0000147
 4,-0.00001725,-0.00002463,-0.00000756,0.00000066,-0.00000810,-0.000005
 45,-0.00001023,0.00001952,0.00000310,-0.00002292,0.00000636,-0.0001134
 1,0.00005621,-0.00000192,-0.00001697,-0.00001763,0.00006916,0.00001999
 ,0.00000145,-0.00001199,-0.00000069,-0.00000966,0.00001694,0.00010929,
 0.00003763,-0.00005729,-0.00000225,-0.00000172,0.00000078,-0.00000362,
 0.00000238,-0.00000270,-0.00000089,-0.00000107,0.00000079,0.00000097,0
 .00000042,-0.00000076,-0.00001057,-0.00002096,0.00004161,0.00000027,-0
 .00000092,-0.00000724,0.00000600,0.00000348,-0.00000117,0.00000698,0.0
 0000442,-0.00000557,-0.00002015,-0.00011822,0.00009647,-0.00000501,0.0
 0003285,-0.00002375,0.00005242,-0.00001561,-0.00002662,0.00001051,0.00
 003888,0.00006351,0.00160962,0.00402146,-0.00397634,0.00168451,-0.0008
 7811,-0.00073614,0.01531004,0.07102937,-0.05748235,-0.01809956,-0.0774
 8183,0.06278276,-0.00011575,-0.00001501,0.00001232,0.00022734,0.000312
 06,0.00034916,-0.00032037,0.00025610,-0.00022521,0.00015020,0.00001382
 ,0.00017432,0.00008675,0.00016240,0.00001293,0.00176757,-0.00070897,0.
 00110447,-0.00023306,0.00036920,-0.00108535,-0.00000118,-0.00005592,-0
 .00013618,0.00195826,0.00057192,-0.00114894,0.00005612,-0.00006341,0.0
 0001383,0.00002966,-0.00002242,0.00001678,0.00003086,0.00005068,-0.000
 01470,-0.00002518,-0.00010301,-0.00003153,0.00008872,-0.00004364,-0.00
 001088,0.00001524,0.00002927,-0.00007049,-0.00000677,-0.00000959,-0.00
 002909,-0.00037806,0.00015082,-0.00004315,-0.00012393,-0.00006766,0.00
 000307,-0.00003641,0.00003333,-0.00003365,0.00000216,0.00000253,0.0000
 0065,0.00000230,-0.00001020,0.00000280,0.00001013,-0.00000538,0.000001
 84,0.00002512,0.00002759,-0.00002886,0.00000028,-0.00000129,0.00000118
 ,-0.00001368,-0.00001149,0.00000160,-0.00000994,-0.00000432,0.00000410
 ,-0.00001233,0.00001544,-0.00000775,-0.00001294,-0.00000678,0.00000643
 ,0.00000559,-0.00000285,-0.00001180,-0.00000155,-0.00000213,0.00000573
 ,-0.01368747,-0.00324719,0.02773245,-0.00486454,0.00455741,-0.00083424
 ,-0.11819657,0.00881550,0.11578315,-0.00357585,0.00063339,0.00485396,0
 .12522391,0.00026759,0.00002888,0.00008566,-0.00007176,-0.00014412,-0.
 00021296,0.00038457,-0.00047013,0.00037575,-0.00020263,0.00002664,-0.0
 0012261,-0.00002103,-0.00027701,-0.00004758,-0.00033340,0.00061761,-0.
 00086908,-0.00005556,-0.00026067,0.00076300,-0.00012606,-0.00007385,-0
 .00004979,-0.00222918,0.00011435,-0.00133339,-0.00013199,0.00000332,-0
 .00010294,-0.00002856,0.00000509,-0.00001395,-0.00005429,-0.00000587,0
 .00002974,0.00000261,0.00003304,0.00002602,-0.00009372,0.00005946,0.00
 000415,-0.00004770,0.00000456,0.00008814,0.00002140,0.00001824,-0.0000
 0189,0.00019793,-0.00009358,0.00001023,0.00007519,0.00006801,0.0000062
 1,0.00005020,-0.00005233,0.00003754,-0.00001041,0.00000271,-0.00000973
 ,-0.00000123,0.00000548,0.00000127,-0.00000931,0.00000876,0.00000089,0
 .00002003,-0.00000096,0.00000731,-0.00000099,-0.00000226,0.00000210,0.
 00001095,0.00000368,-0.00000270,0.00000682,0.00000636,-0.00000281,0.00
 006717,0.00007492,-0.00005668,-0.00002815,0.00000393,0.00000196,-0.000
 00139,-0.00001178,0.00000542,0.00000668,0.00000707,0.00002575,0.011259
 14,-0.00474217,-0.01638801,0.00423967,-0.00266356,0.00104483,0.0063185
 1,-0.03806285,-0.01343640,-0.01584391,0.00283830,0.02559212,-0.0118903
 8,0.04443839,-0.00004946,-0.00000223,0.00009618,0.00005227,0.00004318,
 0.00009257,0.00053964,-0.00044754,0.00067471,-0.00019959,0.00014048,-0
 .00012463,0.00012657,-0.00003029,-0.00005543,0.00059985,0.00020511,0.0
 0036605,-0.00007226,0.00007251,-0.00032632,-0.00002177,-0.00010641,0.0
 0002152,-0.00217333,0.00079770,-0.00170683,0.00000703,-0.00000376,-0.0
 0008856,0.00001133,-0.00000063,-0.00001357,0.00000885,0.00000155,0.000
 03771,-0.00000434,0.00001711,-0.00002466,-0.00001095,-0.00002165,0.000
 01631,-0.00004226,-0.00002021,0.00006895,-0.00000993,0.00001429,-0.000
 00067,-0.00015495,0.00007745,-0.00001646,-0.00011161,0.00000445,0.0000
 3487,0.00000150,-0.00001401,0.00000857,-0.00000545,0.00000049,-0.00000
 282,-0.00000035,0.00000543,0.00000091,0.00001075,-0.00000310,-0.000002
 28,0.00004626,0.00001660,-0.00004291,-0.00000010,-0.00000253,0.0000066
 4,-0.00000256,-0.00000415,0.00000325,-0.00000680,0.00000051,0.00000325
 ,0.00004426,0.00007419,-0.00005951,-0.00001304,-0.00000508,0.00000742,
 -0.00001528,-0.00000055,0.00000489,-0.00000462,-0.00001336,-0.00000025
 ,-0.00187813,-0.00247462,0.00578136,-0.00140520,0.00246879,0.00088517,
 0.12086718,-0.01467733,-0.25949853,0.00349132,-0.00155981,-0.00726496,
 -0.13084324,0.01424083,0.27474716,-0.00003136,-0.00001076,0.00006680,-
 0.00061336,-0.00020571,-0.00037725,0.00137424,0.00055393,-0.00052033,0
 .00007701,0.00001899,-0.00018562,0.00001646,-0.00029740,-0.00007405,-0
 .00048363,0.00119135,-0.00044811,0.00016924,-0.00024092,0.00068953,-0.
 00001645,-0.00004370,0.00015147,-0.00584906,0.00285804,-0.00216129,0.0
 0000952,0.00003030,-0.00000806,0.00000623,0.00001418,-0.00002612,0.000
 00041,-0.00001341,0.00000557,0.00005880,0.00018907,0.00003010,-0.00020
 902,0.00009087,-0.00000411,-0.00001247,-0.00001159,0.00005711,-0.00002
 288,0.00001024,0.00003543,0.00003151,0.00001381,0.00002032,0.00018207,
 0.00007068,0.00002873,0.00000595,-0.00000306,0.00000987,0.00000011,-0.
 00000022,-0.00000073,-0.00000073,0.00000373,-0.00000292,0.00000290,-0.
 00000231,-0.00000349,-0.00001945,-0.00003662,0.00002026,-0.00000242,0.
 00000303,0.00000307,0.00001116,0.00001189,-0.00000176,0.00001262,0.000
 00446,-0.00000442,0.00002791,0.00006019,-0.00005709,-0.00000768,-0.000
 00829,0.00001538,-0.00002721,-0.00000335,0.00001668,-0.00000741,-0.000
 01628,0.00000042,-0.01399054,-0.01682750,-0.01951361,0.00205987,-0.000
 58541,0.00008361,-0.13497951,-0.06311887,-0.10851610,-0.00363596,-0.00
 155640,-0.00356076,0.01193535,0.00825318,0.01121840,0.14392776,0.00005
 826,0.00001145,-0.00003452,0.00033818,0.00014210,0.00019981,-0.0002750
 3,-0.00015171,0.00049518,0.00000083,-0.00012956,0.00017207,-0.00004334
 ,0.00012090,-0.00004142,0.00018789,-0.00031108,0.00026594,-0.00012915,
 -0.00003170,-0.00022692,-0.00008822,0.00008357,-0.00002376,0.00547226,
 -0.00131748,0.00142768,-0.00003231,-0.00003235,0.00000437,0.00000151,-
 0.00001490,0.00002001,-0.00001440,0.00002381,0.00000812,-0.00002643,-0
 .00011201,-0.00001096,0.00019475,-0.00008047,0.00001438,0.00000906,0.0
 0002706,-0.00005969,-0.00000437,-0.00000615,-0.00001318,0.00001228,0.0
 0001219,-0.00002890,-0.00007323,-0.00003579,0.00000873,0.00000149,0.00
 000066,-0.00000882,-0.00000106,0.00000060,-0.00000077,0.00000043,-0.00
 000427,0.00000410,-0.00000374,0.00000323,0.00000282,0.00000946,0.00002
 025,-0.00002135,0.00000051,0.00000053,0.00000123,-0.00000543,-0.000007
 98,-0.00000124,-0.00000380,-0.00000093,0.00000376,0.00001602,0.0000291
 8,-0.00003524,-0.00000687,-0.00000738,0.00000629,-0.00001503,0.0000096
 5,0.00000492,0.00001287,0.00000213,-0.00002524,0.01064584,0.00692240,0
 .01500934,-0.00062153,0.00031815,0.00078091,-0.07003194,-0.09851582,-0
 .09410082,-0.01545978,-0.00977903,-0.02178993,0.00027017,-0.00150766,0
 .00120658,0.06960387,0.10431838,-0.00003555,0.00000544,-0.00004364,-0.
 00006011,-0.00001800,-0.00008423,0.00013307,-0.00028723,0.00023854,-0.
 00009453,0.00001430,-0.00007710,0.00001398,-0.00017340,0.00007178,-0.0
 0024084,0.00083545,-0.00008629,0.00004934,-0.00006838,0.00013744,0.000
 08733,0.00005465,-0.00001792,-0.00148390,-0.00039845,0.00161690,0.0000
 4234,0.00001010,0.00005823,-0.00000346,0.00000676,-0.00000179,0.000019
 08,-0.00002481,-0.00001444,0.00003423,0.00000803,0.00000597,-0.0000321
 5,0.00001285,-0.00000897,0.00000098,-0.00001707,0.00003189,0.00000782,
 -0.00000157,0.00000242,-0.00000080,-0.00001350,0.00001857,0.00017384,0
 .00003520,-0.00005787,-0.00001715,0.00001923,-0.00000966,0.00000360,-0
 .00000100,0.00000414,-0.00000037,-0.00000144,-0.00000161,-0.00000004,-
 0.00000215,-0.00000198,-0.00004105,-0.00003849,0.00006029,-0.00000005,
 0.00000543,-0.00000829,0.00000664,0.00000910,-0.00000305,0.00001056,0.
 00000306,-0.00000584,-0.00004494,-0.00007168,0.00006155,0.00001575,0.0
 0001015,-0.00000996,0.00001726,-0.00000159,-0.00000699,-0.00000322,0.0
 0000737,0.00000633,-0.00166646,0.00112916,-0.00520934,0.00222656,-0.00
 129611,-0.00021715,-0.11338186,-0.09094406,-0.19529339,0.00677676,0.00
 410453,0.00723603,-0.01552573,-0.00969842,-0.01362911,0.12301308,0.096
 78655,0.20523855\\-0.00000370,0.00000150,0.00000311,0.00000172,-0.0000
 0128,-0.00000348,-0.00000444,0.00000383,-0.00000087,0.00000096,0.00000
 319,0.00000235,-0.00000028,-0.00000421,-0.00000595,-0.00000218,0.00000
 462,-0.00000253,-0.00000234,-0.00000276,0.00000570,0.00000080,-0.00000
 217,-0.00000247,0.00000628,0.00000341,0.00001113,0.00001151,0.00000220
 ,-0.00000253,0.00000157,0.00000068,0.00000024,-0.00000028,-0.00000007,
 0.00000217,0.00000052,-0.00000142,0.00000011,0.00000427,0.00000064,-0.
 00000041,0.00000210,-0.00000354,-0.00000239,-0.00000414,0.00000073,-0.
 00000029,-0.00000428,-0.00000096,0.00000163,0.00000020,0.00000056,0.00
 000070,-0.00000035,0.00000014,0.00000157,0.00000593,-0.00000076,-0.000
 00038,0.00000326,-0.00000103,0.00000003,0.00000306,-0.00000173,-0.0000
 0316,-0.00000900,-0.00000461,-0.00000296,-0.00000456,-0.00000192,-0.00
 000534,-0.00000160,-0.00000215,-0.00000398,-0.00000412,-0.00000472,-0.
 00000513,-0.00000114,-0.00000326,0.00000035,0.00000378,-0.00000205,-0.
 00000271,-0.00000069,-0.00000185,-0.00000325,0.00000102,0.00000011,0.0
 0000014,-0.00000735,0.00000440,-0.00000057,0.00000038,0.00000053,-0.00
 000228,0.00000241,0.00000224,0.00000550,0.00000072,0.00000386,0.000004
 20,0.00000165,0.00000417,0.00000642,-0.00000167,0.00000369,0.00000534\
 \\@


 THE MOLECULE ALSO HAS A BODY.  WHEN THIS BODY IS HIT, THE MOLECULE
 FEELS HURT ALL OVER -- A. KITAIGORODSKI
 Job cpu time:       0 days  6 hours 34 minutes 54.3 seconds.
 File lengths (MBytes):  RWF=    766 Int=      0 D2E=      0 Chk=     19 Scr=      1
 Normal termination of Gaussian 09 at Tue Oct 24 14:50:49 2017.
