 Entering Gaussian System, Link 0=g09
 Initial command:
 /share/apps//g09/l1.exe "/scratch/Gau-38401.inp" -scrdir="/scratch/"
 Entering Link 1 = /share/apps//g09/l1.exe PID=     38402.
  
 Copyright (c) 1988,1990,1992,1993,1995,1998,2003,2009,2013,
            Gaussian, Inc.  All Rights Reserved.
  
 This is part of the Gaussian(R) 09 program.  It is based on
 the Gaussian(R) 03 system (copyright 2003, Gaussian, Inc.),
 the Gaussian(R) 98 system (copyright 1998, Gaussian, Inc.),
 the Gaussian(R) 94 system (copyright 1995, Gaussian, Inc.),
 the Gaussian 92(TM) system (copyright 1992, Gaussian, Inc.),
 the Gaussian 90(TM) system (copyright 1990, Gaussian, Inc.),
 the Gaussian 88(TM) system (copyright 1988, Gaussian, Inc.),
 the Gaussian 86(TM) system (copyright 1986, Carnegie Mellon
 University), and the Gaussian 82(TM) system (copyright 1983,
 Carnegie Mellon University). Gaussian is a federally registered
 trademark of Gaussian, Inc.
  
 This software contains proprietary and confidential information,
 including trade secrets, belonging to Gaussian, Inc.
  
 This software is provided under written license and may be
 used, copied, transmitted, or stored only in accord with that
 written license.
  
 The following legend is applicable only to US Government
 contracts under FAR:
  
                    RESTRICTED RIGHTS LEGEND
  
 Use, reproduction and disclosure by the US Government is
 subject to restrictions as set forth in subparagraphs (a)
 and (c) of the Commercial Computer Software - Restricted
 Rights clause in FAR 52.227-19.
  
 Gaussian, Inc.
 340 Quinnipiac St., Bldg. 40, Wallingford CT 06492
  
  
 ---------------------------------------------------------------
 Warning -- This program may not be used in any manner that
 competes with the business of Gaussian, Inc. or will provide
 assistance to any competitor of Gaussian, Inc.  The licensee
 of this program is prohibited from giving any competitor of
 Gaussian, Inc. access to this program.  By using this program,
 the user acknowledges that Gaussian, Inc. is engaged in the
 business of creating and licensing software in the field of
 computational chemistry and represents and warrants to the
 licensee that it is not a competitor of Gaussian, Inc. and that
 it will not use this program in any manner prohibited above.
 ---------------------------------------------------------------
  

 Cite this work as:
 Gaussian 09, Revision D.01,
 M. J. Frisch, G. W. Trucks, H. B. Schlegel, G. E. Scuseria, 
 M. A. Robb, J. R. Cheeseman, G. Scalmani, V. Barone, B. Mennucci, 
 G. A. Petersson, H. Nakatsuji, M. Caricato, X. Li, H. P. Hratchian, 
 A. F. Izmaylov, J. Bloino, G. Zheng, J. L. Sonnenberg, M. Hada, 
 M. Ehara, K. Toyota, R. Fukuda, J. Hasegawa, M. Ishida, T. Nakajima, 
 Y. Honda, O. Kitao, H. Nakai, T. Vreven, J. A. Montgomery, Jr., 
 J. E. Peralta, F. Ogliaro, M. Bearpark, J. J. Heyd, E. Brothers, 
 K. N. Kudin, V. N. Staroverov, T. Keith, R. Kobayashi, J. Normand, 
 K. Raghavachari, A. Rendell, J. C. Burant, S. S. Iyengar, J. Tomasi, 
 M. Cossi, N. Rega, J. M. Millam, M. Klene, J. E. Knox, J. B. Cross, 
 V. Bakken, C. Adamo, J. Jaramillo, R. Gomperts, R. E. Stratmann, 
 O. Yazyev, A. J. Austin, R. Cammi, C. Pomelli, J. W. Ochterski, 
 R. L. Martin, K. Morokuma, V. G. Zakrzewski, G. A. Voth, 
 P. Salvador, J. J. Dannenberg, S. Dapprich, A. D. Daniels, 
 O. Farkas, J. B. Foresman, J. V. Ortiz, J. Cioslowski, 
 and D. J. Fox, Gaussian, Inc., Wallingford CT, 2013.
 
 ******************************************
 Gaussian 09:  EM64L-G09RevD.01 24-Apr-2013
                 8-Jan-2017 
 ******************************************
 %nproc=20
 Will use up to   20 processors via shared memory.
 %mem=100GB
 %chk=Ac-4_cGalMe.chk
 -------------------------------------------------------------------
 #P PBE1PBE/6-311+G(d,p) opt optcyc=999 freq EmpiricalDispersion=GD3
 -------------------------------------------------------------------
 1/6=999,14=-1,18=20,19=15,26=3,38=1/1,3;
 2/9=110,12=2,17=6,18=5,40=1/2;
 3/5=4,6=6,7=111,11=2,16=1,25=1,30=1,71=1,74=-13,124=31/1,2,3;
 4//1;
 5/5=2,38=5/2;
 6/7=2,8=2,9=2,10=2,28=1/1;
 7//1,2,3,16;
 1/6=999,14=-1,18=20,19=15,26=3/3(2);
 2/9=110/2;
 99//99;
 2/9=110/2;
 3/5=4,6=6,7=111,11=2,16=1,25=1,30=1,71=1,74=-13,124=31/1,2,3;
 4/5=5,16=3,69=1/1;
 5/5=2,38=5/2;
 7//1,2,3,16;
 1/6=999,14=-1,18=20,19=15,26=3/3(-5);
 2/9=110/2;
 6/7=2,8=2,9=2,10=2,19=2,28=1/1;
 99/9=1/99;
 Leave Link    1 at Sun Jan  8 00:32:01 2017, MaxMem= 13421772800 cpu:         1.6
 (Enter /share/apps//g09/l101.exe)
 -------
 disacch
 -------
 Symbolic Z-matrix:
 Charge =  1 Multiplicity = 1
 C                    -1.26768   2.57565   1.17922 
 C                    -0.20194   1.49882   1.06677 
 C                     1.21614   1.88967   1.46673 
 C                     2.17886   0.672     1.40438 
 C                     1.85073  -0.21378   0.18234 
 C                     0.95059   0.55641  -0.7942 
 O                    -0.22147   1.01262  -0.31512 
 O                     3.53692   1.03647   1.3165 
 O                     1.75782   2.9908    0.63132 
 O                    -0.89397   3.71163   0.4277 
 H                    -1.40621   2.82098   2.25193 
 H                    -2.21965   2.1457    0.81226 
 H                    -0.49721   0.65882   1.72098 
 H                     1.20669   2.34573   2.46425 
 H                     1.97578   0.06147   2.30523 
 H                     2.79922  -0.46971  -0.32253 
 H                     0.77412   0.06701  -1.75757 
 O                     1.17175  -1.35855   0.65649 
 C                    -1.93614   4.69391   0.3881 
 H                    -2.84715   4.28549  -0.08077 
 H                    -2.18064   5.05825   1.40035 
 H                    -1.56041   5.52796  -0.21442 
 C                     1.14803  -2.46932  -0.25919 
 H                     0.47478  -2.28958  -1.11202 
 H                     2.16288  -2.69438  -0.62412 
 H                     0.77     -3.32174   0.31448 
 C                     4.08984   1.56828   2.53265 
 H                     3.69757   2.57337   2.75943 
 H                     3.89164   0.89224   3.37984 
 H                     5.17025   1.63694   2.36927 
 C                     2.08199   2.82172  -0.61284 
 O                     1.85008   1.7812   -1.32505 
 C                     2.73612   3.97759  -1.27096 
 H                     3.34685   4.53434  -0.55365 
 H                     1.93894   4.64456  -1.63589 
 H                     3.32614   3.64304  -2.12918 
 
 NAtoms=     36 NQM=       36 NQMF=       0 NMMI=      0 NMMIF=      0
                NMic=       0 NMicF=      0.
                    Isotopes and Nuclear Properties:
 (Nuclear quadrupole moments (NQMom) in fm**2, nuclear magnetic moments (NMagM)
  in nuclear magnetons)

  Atom         1           2           3           4           5           6           7           8           9          10
 IAtWgt=          12          12          12          12          12          12          16          16          16          16
 AtmWgt=  12.0000000  12.0000000  12.0000000  12.0000000  12.0000000  12.0000000  15.9949146  15.9949146  15.9949146  15.9949146
 NucSpn=           0           0           0           0           0           0           0           0           0           0
 AtZEff=   0.0000000   0.0000000   0.0000000   0.0000000   0.0000000   0.0000000   0.0000000   0.0000000   0.0000000   0.0000000
 NQMom=    0.0000000   0.0000000   0.0000000   0.0000000   0.0000000   0.0000000   0.0000000   0.0000000   0.0000000   0.0000000
 NMagM=    0.0000000   0.0000000   0.0000000   0.0000000   0.0000000   0.0000000   0.0000000   0.0000000   0.0000000   0.0000000
 AtZNuc=   6.0000000   6.0000000   6.0000000   6.0000000   6.0000000   6.0000000   8.0000000   8.0000000   8.0000000   8.0000000

  Atom        11          12          13          14          15          16          17          18          19          20
 IAtWgt=           1           1           1           1           1           1           1          16          12           1
 AtmWgt=   1.0078250   1.0078250   1.0078250   1.0078250   1.0078250   1.0078250   1.0078250  15.9949146  12.0000000   1.0078250
 NucSpn=           1           1           1           1           1           1           1           0           0           1
 AtZEff=   0.0000000   0.0000000   0.0000000   0.0000000   0.0000000   0.0000000   0.0000000   0.0000000   0.0000000   0.0000000
 NQMom=    0.0000000   0.0000000   0.0000000   0.0000000   0.0000000   0.0000000   0.0000000   0.0000000   0.0000000   0.0000000
 NMagM=    2.7928460   2.7928460   2.7928460   2.7928460   2.7928460   2.7928460   2.7928460   0.0000000   0.0000000   2.7928460
 AtZNuc=   1.0000000   1.0000000   1.0000000   1.0000000   1.0000000   1.0000000   1.0000000   8.0000000   6.0000000   1.0000000

  Atom        21          22          23          24          25          26          27          28          29          30
 IAtWgt=           1           1          12           1           1           1          12           1           1           1
 AtmWgt=   1.0078250   1.0078250  12.0000000   1.0078250   1.0078250   1.0078250  12.0000000   1.0078250   1.0078250   1.0078250
 NucSpn=           1           1           0           1           1           1           0           1           1           1
 AtZEff=   0.0000000   0.0000000   0.0000000   0.0000000   0.0000000   0.0000000   0.0000000   0.0000000   0.0000000   0.0000000
 NQMom=    0.0000000   0.0000000   0.0000000   0.0000000   0.0000000   0.0000000   0.0000000   0.0000000   0.0000000   0.0000000
 NMagM=    2.7928460   2.7928460   0.0000000   2.7928460   2.7928460   2.7928460   0.0000000   2.7928460   2.7928460   2.7928460
 AtZNuc=   1.0000000   1.0000000   6.0000000   1.0000000   1.0000000   1.0000000   6.0000000   1.0000000   1.0000000   1.0000000

  Atom        31          32          33          34          35          36
 IAtWgt=          12          16          12           1           1           1
 AtmWgt=  12.0000000  15.9949146  12.0000000   1.0078250   1.0078250   1.0078250
 NucSpn=           0           0           0           1           1           1
 AtZEff=   0.0000000   0.0000000   0.0000000   0.0000000   0.0000000   0.0000000
 NQMom=    0.0000000   0.0000000   0.0000000   0.0000000   0.0000000   0.0000000
 NMagM=    0.0000000   0.0000000   0.0000000   2.7928460   2.7928460   2.7928460
 AtZNuc=   6.0000000   8.0000000   6.0000000   1.0000000   1.0000000   1.0000000
 Leave Link  101 at Sun Jan  8 00:32:01 2017, MaxMem= 13421772800 cpu:         4.6
 (Enter /share/apps//g09/l103.exe)

 GradGradGradGradGradGradGradGradGradGradGradGradGradGradGradGradGradGrad
 Berny optimization.
 Initialization pass.
                           ----------------------------
                           !    Initial Parameters    !
                           ! (Angstroms and Degrees)  !
 --------------------------                            --------------------------
 ! Name  Definition              Value          Derivative Info.                !
 --------------------------------------------------------------------------------
 ! R1    R(1,2)                  1.5192         estimate D2E/DX2                !
 ! R2    R(1,10)                 1.4124         estimate D2E/DX2                !
 ! R3    R(1,11)                 1.1091         estimate D2E/DX2                !
 ! R4    R(1,12)                 1.1071         estimate D2E/DX2                !
 ! R5    R(2,3)                  1.5244         estimate D2E/DX2                !
 ! R6    R(2,7)                  1.4651         estimate D2E/DX2                !
 ! R7    R(2,13)                 1.1049         estimate D2E/DX2                !
 ! R8    R(3,4)                  1.5535         estimate D2E/DX2                !
 ! R9    R(3,9)                  1.4845         estimate D2E/DX2                !
 ! R10   R(3,14)                 1.0969         estimate D2E/DX2                !
 ! R11   R(4,5)                  1.5446         estimate D2E/DX2                !
 ! R12   R(4,8)                  1.4089         estimate D2E/DX2                !
 ! R13   R(4,15)                 1.107          estimate D2E/DX2                !
 ! R14   R(5,6)                  1.5353         estimate D2E/DX2                !
 ! R15   R(5,16)                 1.1045         estimate D2E/DX2                !
 ! R16   R(5,18)                 1.4129         estimate D2E/DX2                !
 ! R17   R(6,7)                  1.3459         estimate D2E/DX2                !
 ! R18   R(6,17)                 1.0949         estimate D2E/DX2                !
 ! R19   R(6,32)                 1.6097         estimate D2E/DX2                !
 ! R20   R(8,27)                 1.4379         estimate D2E/DX2                !
 ! R21   R(9,31)                 1.2968         estimate D2E/DX2                !
 ! R22   R(10,19)                1.4327         estimate D2E/DX2                !
 ! R23   R(18,23)                1.4397         estimate D2E/DX2                !
 ! R24   R(19,20)                1.103          estimate D2E/DX2                !
 ! R25   R(19,21)                1.1033         estimate D2E/DX2                !
 ! R26   R(19,22)                1.0954         estimate D2E/DX2                !
 ! R27   R(23,24)                1.1013         estimate D2E/DX2                !
 ! R28   R(23,25)                1.1017         estimate D2E/DX2                !
 ! R29   R(23,26)                1.0948         estimate D2E/DX2                !
 ! R30   R(27,28)                1.1025         estimate D2E/DX2                !
 ! R31   R(27,29)                1.1018         estimate D2E/DX2                !
 ! R32   R(27,30)                1.0948         estimate D2E/DX2                !
 ! R33   R(31,32)                1.2821         estimate D2E/DX2                !
 ! R34   R(31,33)                1.4822         estimate D2E/DX2                !
 ! R35   R(33,34)                1.0943         estimate D2E/DX2                !
 ! R36   R(33,35)                1.1016         estimate D2E/DX2                !
 ! R37   R(33,36)                1.0939         estimate D2E/DX2                !
 ! A1    A(2,1,10)             110.1872         estimate D2E/DX2                !
 ! A2    A(2,1,11)             108.4211         estimate D2E/DX2                !
 ! A3    A(2,1,12)             107.6616         estimate D2E/DX2                !
 ! A4    A(10,1,11)            111.7015         estimate D2E/DX2                !
 ! A5    A(10,1,12)            111.3145         estimate D2E/DX2                !
 ! A6    A(11,1,12)            107.4023         estimate D2E/DX2                !
 ! A7    A(1,2,3)              116.8358         estimate D2E/DX2                !
 ! A8    A(1,2,7)              107.1991         estimate D2E/DX2                !
 ! A9    A(1,2,13)             107.9134         estimate D2E/DX2                !
 ! A10   A(3,2,7)              110.1803         estimate D2E/DX2                !
 ! A11   A(3,2,13)             106.7492         estimate D2E/DX2                !
 ! A12   A(7,2,13)             107.6156         estimate D2E/DX2                !
 ! A13   A(2,3,4)              111.4071         estimate D2E/DX2                !
 ! A14   A(2,3,9)              112.4561         estimate D2E/DX2                !
 ! A15   A(2,3,14)             109.7067         estimate D2E/DX2                !
 ! A16   A(4,3,9)              109.4314         estimate D2E/DX2                !
 ! A17   A(4,3,14)             111.5759         estimate D2E/DX2                !
 ! A18   A(9,3,14)             101.9182         estimate D2E/DX2                !
 ! A19   A(3,4,5)              110.4633         estimate D2E/DX2                !
 ! A20   A(3,4,8)              113.3963         estimate D2E/DX2                !
 ! A21   A(3,4,15)             106.6146         estimate D2E/DX2                !
 ! A22   A(5,4,8)              107.6854         estimate D2E/DX2                !
 ! A23   A(5,4,15)             106.7732         estimate D2E/DX2                !
 ! A24   A(8,4,15)             111.7318         estimate D2E/DX2                !
 ! A25   A(4,5,6)              109.8837         estimate D2E/DX2                !
 ! A26   A(4,5,16)             108.1854         estimate D2E/DX2                !
 ! A27   A(4,5,18)             107.5314         estimate D2E/DX2                !
 ! A28   A(6,5,16)             109.2063         estimate D2E/DX2                !
 ! A29   A(6,5,18)             109.7647         estimate D2E/DX2                !
 ! A30   A(16,5,18)            112.2293         estimate D2E/DX2                !
 ! A31   A(5,6,7)              117.0147         estimate D2E/DX2                !
 ! A32   A(5,6,17)             115.4633         estimate D2E/DX2                !
 ! A33   A(5,6,32)             105.2988         estimate D2E/DX2                !
 ! A34   A(7,6,17)             108.927          estimate D2E/DX2                !
 ! A35   A(7,6,32)             110.2497         estimate D2E/DX2                !
 ! A36   A(17,6,32)             98.0482         estimate D2E/DX2                !
 ! A37   A(2,7,6)              115.8896         estimate D2E/DX2                !
 ! A38   A(4,8,27)             114.4305         estimate D2E/DX2                !
 ! A39   A(3,9,31)             122.3045         estimate D2E/DX2                !
 ! A40   A(1,10,19)            111.9425         estimate D2E/DX2                !
 ! A41   A(5,18,23)            114.8078         estimate D2E/DX2                !
 ! A42   A(10,19,20)           111.0198         estimate D2E/DX2                !
 ! A43   A(10,19,21)           111.2398         estimate D2E/DX2                !
 ! A44   A(10,19,22)           106.7227         estimate D2E/DX2                !
 ! A45   A(20,19,21)           109.2242         estimate D2E/DX2                !
 ! A46   A(20,19,22)           109.3558         estimate D2E/DX2                !
 ! A47   A(21,19,22)           109.2232         estimate D2E/DX2                !
 ! A48   A(18,23,24)           112.1272         estimate D2E/DX2                !
 ! A49   A(18,23,25)           110.6772         estimate D2E/DX2                !
 ! A50   A(18,23,26)           105.8503         estimate D2E/DX2                !
 ! A51   A(24,23,25)           109.8743         estimate D2E/DX2                !
 ! A52   A(24,23,26)           108.7689         estimate D2E/DX2                !
 ! A53   A(25,23,26)           109.4256         estimate D2E/DX2                !
 ! A54   A(8,27,28)            111.9829         estimate D2E/DX2                !
 ! A55   A(8,27,29)            110.7454         estimate D2E/DX2                !
 ! A56   A(8,27,30)            106.048          estimate D2E/DX2                !
 ! A57   A(28,27,29)           109.7056         estimate D2E/DX2                !
 ! A58   A(28,27,30)           108.9433         estimate D2E/DX2                !
 ! A59   A(29,27,30)           109.3128         estimate D2E/DX2                !
 ! A60   A(9,31,32)            126.4115         estimate D2E/DX2                !
 ! A61   A(9,31,33)            115.762          estimate D2E/DX2                !
 ! A62   A(32,31,33)           117.7793         estimate D2E/DX2                !
 ! A63   A(6,32,31)            122.3724         estimate D2E/DX2                !
 ! A64   A(31,33,34)           110.6097         estimate D2E/DX2                !
 ! A65   A(31,33,35)           107.4498         estimate D2E/DX2                !
 ! A66   A(31,33,36)           110.3581         estimate D2E/DX2                !
 ! A67   A(34,33,35)           108.2391         estimate D2E/DX2                !
 ! A68   A(34,33,36)           111.6446         estimate D2E/DX2                !
 ! A69   A(35,33,36)           108.3966         estimate D2E/DX2                !
 ! D1    D(10,1,2,3)            55.9816         estimate D2E/DX2                !
 ! D2    D(10,1,2,7)           -68.1649         estimate D2E/DX2                !
 ! D3    D(10,1,2,13)          176.1776         estimate D2E/DX2                !
 ! D4    D(11,1,2,3)           -66.5463         estimate D2E/DX2                !
 ! D5    D(11,1,2,7)           169.3072         estimate D2E/DX2                !
 ! D6    D(11,1,2,13)           53.6496         estimate D2E/DX2                !
 ! D7    D(12,1,2,3)           177.5491         estimate D2E/DX2                !
 ! D8    D(12,1,2,7)            53.4026         estimate D2E/DX2                !
 ! D9    D(12,1,2,13)          -62.2549         estimate D2E/DX2                !
 ! D10   D(2,1,10,19)          173.6729         estimate D2E/DX2                !
 ! D11   D(11,1,10,19)         -65.7503         estimate D2E/DX2                !
 ! D12   D(12,1,10,19)          54.3032         estimate D2E/DX2                !
 ! D13   D(1,2,3,4)            175.7843         estimate D2E/DX2                !
 ! D14   D(1,2,3,9)            -60.9388         estimate D2E/DX2                !
 ! D15   D(1,2,3,14)            51.73           estimate D2E/DX2                !
 ! D16   D(7,2,3,4)            -61.6            estimate D2E/DX2                !
 ! D17   D(7,2,3,9)             61.6768         estimate D2E/DX2                !
 ! D18   D(7,2,3,14)           174.3457         estimate D2E/DX2                !
 ! D19   D(13,2,3,4)            54.9717         estimate D2E/DX2                !
 ! D20   D(13,2,3,9)           178.2485         estimate D2E/DX2                !
 ! D21   D(13,2,3,14)          -69.0826         estimate D2E/DX2                !
 ! D22   D(1,2,7,6)            150.5573         estimate D2E/DX2                !
 ! D23   D(3,2,7,6)             22.4424         estimate D2E/DX2                !
 ! D24   D(13,2,7,6)           -93.5873         estimate D2E/DX2                !
 ! D25   D(2,3,4,5)             38.7913         estimate D2E/DX2                !
 ! D26   D(2,3,4,8)            159.772          estimate D2E/DX2                !
 ! D27   D(2,3,4,15)           -76.8533         estimate D2E/DX2                !
 ! D28   D(9,3,4,5)            -86.1936         estimate D2E/DX2                !
 ! D29   D(9,3,4,8)             34.7871         estimate D2E/DX2                !
 ! D30   D(9,3,4,15)           158.1618         estimate D2E/DX2                !
 ! D31   D(14,3,4,5)           161.7827         estimate D2E/DX2                !
 ! D32   D(14,3,4,8)           -77.2366         estimate D2E/DX2                !
 ! D33   D(14,3,4,15)           46.1381         estimate D2E/DX2                !
 ! D34   D(2,3,9,31)           -70.811          estimate D2E/DX2                !
 ! D35   D(4,3,9,31)            53.5635         estimate D2E/DX2                !
 ! D36   D(14,3,9,31)          171.7923         estimate D2E/DX2                !
 ! D37   D(3,4,5,6)             15.2748         estimate D2E/DX2                !
 ! D38   D(3,4,5,16)           134.4201         estimate D2E/DX2                !
 ! D39   D(3,4,5,18)          -104.1555         estimate D2E/DX2                !
 ! D40   D(8,4,5,6)           -109.0471         estimate D2E/DX2                !
 ! D41   D(8,4,5,16)            10.0982         estimate D2E/DX2                !
 ! D42   D(8,4,5,18)           131.5226         estimate D2E/DX2                !
 ! D43   D(15,4,5,6)           130.8201         estimate D2E/DX2                !
 ! D44   D(15,4,5,16)         -110.0346         estimate D2E/DX2                !
 ! D45   D(15,4,5,18)           11.3898         estimate D2E/DX2                !
 ! D46   D(3,4,8,27)            72.6075         estimate D2E/DX2                !
 ! D47   D(5,4,8,27)          -164.8598         estimate D2E/DX2                !
 ! D48   D(15,4,8,27)          -47.9125         estimate D2E/DX2                !
 ! D49   D(4,5,6,7)            -57.8748         estimate D2E/DX2                !
 ! D50   D(4,5,6,17)           171.8809         estimate D2E/DX2                !
 ! D51   D(4,5,6,32)            64.9616         estimate D2E/DX2                !
 ! D52   D(16,5,6,7)          -176.3925         estimate D2E/DX2                !
 ! D53   D(16,5,6,17)           53.3633         estimate D2E/DX2                !
 ! D54   D(16,5,6,32)          -53.5561         estimate D2E/DX2                !
 ! D55   D(18,5,6,7)            60.1812         estimate D2E/DX2                !
 ! D56   D(18,5,6,17)          -70.0631         estimate D2E/DX2                !
 ! D57   D(18,5,6,32)         -176.9824         estimate D2E/DX2                !
 ! D58   D(4,5,18,23)         -161.9075         estimate D2E/DX2                !
 ! D59   D(6,5,18,23)           78.5863         estimate D2E/DX2                !
 ! D60   D(16,5,18,23)         -43.0471         estimate D2E/DX2                !
 ! D61   D(5,6,7,2)             37.0554         estimate D2E/DX2                !
 ! D62   D(17,6,7,2)           170.2911         estimate D2E/DX2                !
 ! D63   D(32,6,7,2)           -83.1942         estimate D2E/DX2                !
 ! D64   D(5,6,32,31)          -76.2577         estimate D2E/DX2                !
 ! D65   D(7,6,32,31)           50.8162         estimate D2E/DX2                !
 ! D66   D(17,6,32,31)         164.4779         estimate D2E/DX2                !
 ! D67   D(4,8,27,28)          -71.0063         estimate D2E/DX2                !
 ! D68   D(4,8,27,29)           51.7957         estimate D2E/DX2                !
 ! D69   D(4,8,27,30)          170.2822         estimate D2E/DX2                !
 ! D70   D(3,9,31,32)            8.5801         estimate D2E/DX2                !
 ! D71   D(3,9,31,33)         -173.9907         estimate D2E/DX2                !
 ! D72   D(1,10,19,20)         -60.6637         estimate D2E/DX2                !
 ! D73   D(1,10,19,21)          61.1929         estimate D2E/DX2                !
 ! D74   D(1,10,19,22)        -179.7542         estimate D2E/DX2                !
 ! D75   D(5,18,23,24)         -72.2487         estimate D2E/DX2                !
 ! D76   D(5,18,23,25)          50.8248         estimate D2E/DX2                !
 ! D77   D(5,18,23,26)         169.2939         estimate D2E/DX2                !
 ! D78   D(9,31,32,6)            6.9498         estimate D2E/DX2                !
 ! D79   D(33,31,32,6)        -170.4332         estimate D2E/DX2                !
 ! D80   D(9,31,33,34)          32.7819         estimate D2E/DX2                !
 ! D81   D(9,31,33,35)         -85.1697         estimate D2E/DX2                !
 ! D82   D(9,31,33,36)         156.8287         estimate D2E/DX2                !
 ! D83   D(32,31,33,34)       -149.5565         estimate D2E/DX2                !
 ! D84   D(32,31,33,35)         92.4919         estimate D2E/DX2                !
 ! D85   D(32,31,33,36)        -25.5097         estimate D2E/DX2                !
 --------------------------------------------------------------------------------
 Trust Radius=3.00D-01 FncErr=1.00D-07 GrdErr=1.00D-06
 Number of steps in this run=    216 maximum allowed number of steps=    216.
 GradGradGradGradGradGradGradGradGradGradGradGradGradGradGradGradGradGrad

 Leave Link  103 at Sun Jan  8 00:32:02 2017, MaxMem= 13421772800 cpu:         0.3
 (Enter /share/apps//g09/l202.exe)
                          Input orientation:                          
 ---------------------------------------------------------------------
 Center     Atomic      Atomic             Coordinates (Angstroms)
 Number     Number       Type             X           Y           Z
 ---------------------------------------------------------------------
      1          6           0       -1.267680    2.575650    1.179220
      2          6           0       -0.201940    1.498820    1.066770
      3          6           0        1.216140    1.889670    1.466730
      4          6           0        2.178860    0.672000    1.404380
      5          6           0        1.850730   -0.213780    0.182340
      6          6           0        0.950590    0.556410   -0.794200
      7          8           0       -0.221470    1.012620   -0.315120
      8          8           0        3.536920    1.036470    1.316500
      9          8           0        1.757820    2.990800    0.631320
     10          8           0       -0.893970    3.711630    0.427700
     11          1           0       -1.406210    2.820980    2.251930
     12          1           0       -2.219650    2.145700    0.812260
     13          1           0       -0.497210    0.658820    1.720980
     14          1           0        1.206690    2.345730    2.464250
     15          1           0        1.975780    0.061470    2.305230
     16          1           0        2.799220   -0.469710   -0.322530
     17          1           0        0.774120    0.067010   -1.757570
     18          8           0        1.171750   -1.358550    0.656490
     19          6           0       -1.936140    4.693910    0.388100
     20          1           0       -2.847150    4.285490   -0.080770
     21          1           0       -2.180640    5.058250    1.400350
     22          1           0       -1.560410    5.527960   -0.214420
     23          6           0        1.148030   -2.469320   -0.259190
     24          1           0        0.474780   -2.289580   -1.112020
     25          1           0        2.162880   -2.694380   -0.624120
     26          1           0        0.770000   -3.321740    0.314480
     27          6           0        4.089840    1.568280    2.532650
     28          1           0        3.697570    2.573370    2.759430
     29          1           0        3.891640    0.892240    3.379840
     30          1           0        5.170250    1.636940    2.369270
     31          6           0        2.081990    2.821720   -0.612840
     32          8           0        1.850080    1.781200   -1.325050
     33          6           0        2.736120    3.977590   -1.270960
     34          1           0        3.346850    4.534340   -0.553650
     35          1           0        1.938940    4.644560   -1.635890
     36          1           0        3.326140    3.643040   -2.129180
 ---------------------------------------------------------------------
                    Distance matrix (angstroms):
                    1          2          3          4          5
     1  C    0.000000
     2  C    1.519213   0.000000
     3  C    2.592796   1.524363   0.000000
     4  C    3.943757   2.542798   1.553524   0.000000
     5  C    4.301066   2.815789   2.544968   1.544557   0.000000
     6  C    3.590604   2.383206   2.638163   2.521064   1.535277
     7  O    2.402222   1.465057   2.451720   2.972253   2.458767
     8  O    5.046989   3.775607   2.477204   1.408861   2.385934
     9  O    3.102611   2.501256   1.484525   2.480268   3.237213
    10  O    1.412406   2.404962   2.975178   4.431201   4.796084
    11  H    1.109092   2.145455   2.891470   4.264878   4.909239
    12  H    1.107142   2.134100   3.506927   4.676461   4.746782
    13  H    2.135735   1.104887   2.124901   2.694765   2.939671
    14  H    2.797619   2.157416   1.096871   2.206765   3.488982
    15  H    4.255471   2.888291   2.149988   1.107032   2.144309
    16  H    5.298032   3.848666   3.357718   2.161149   1.104548
    17  H    4.368862   3.313558   3.730091   3.512440   2.236332
    18  O    4.658540   3.196861   3.348043   2.386785   1.412916
    19  C    2.357909   3.698195   4.354776   5.843099   6.202269
    20  H    2.646857   4.009927   4.964377   6.365827   6.510202
    21  H    2.654373   4.086083   4.645688   6.184209   6.747577
    22  H    3.277813   4.440817   4.875720   6.339006   6.690357
    23  C    5.775500   4.396217   4.688735   3.701076   2.403372
    24  H    5.653000   4.422335   4.966457   4.243479   2.806698
    25  H    6.541712   5.102392   5.126547   3.930341   2.627012
    26  H    6.299137   4.974777   5.355886   4.372954   3.293153
    27  C    5.616902   4.535747   3.081822   2.393357   3.703148
    28  H    5.210641   4.384739   2.880280   2.785291   4.221423
    29  H    5.856209   4.740847   3.437027   2.623845   3.951278
    30  H    6.613950   5.529558   4.063673   3.287938   4.384865
    31  C    3.806878   3.128497   2.437832   2.949552   3.146435
    32  O    4.077125   3.164068   2.864905   2.964491   2.500434
    33  C    4.898901   4.499053   3.763601   4.288929   4.523669
    34  H    5.304073   4.943081   3.951726   4.485059   5.032365
    35  H    4.742114   4.667271   4.211664   5.008197   5.188180
    36  H    5.760904   5.221027   4.522939   4.757034   4.732338
                    6          7          8          9         10
     6  C    0.000000
     7  O    1.345871   0.000000
     8  O    3.372627   4.097346   0.000000
     9  O    2.934277   2.954071   2.730215   0.000000
    10  O    3.853681   2.879009   5.251593   2.755548   0.000000
    11  H    4.467851   3.356117   5.337981   3.558975   2.093672
    12  H    3.893196   2.558824   5.884110   4.070283   2.087451
    13  H    2.903919   2.084925   4.071907   3.422083   3.339108
    14  H    3.726225   3.397311   2.908860   2.019775   3.228930
    15  H    3.301885   3.549483   2.089347   3.380896   5.008418
    16  H    2.166294   3.364807   2.345037   3.737576   5.629041
    17  H    1.094868   1.991492   4.245330   3.901667   4.565215
    18  O    2.412568   2.916768   3.430126   4.388731   5.479623
    19  C    5.181694   4.121469   6.647795   4.074933   1.432676
    20  H    5.370088   4.202475   7.298277   4.836222   2.098278
    21  H    5.906540   4.811269   6.990868   4.514114   2.101179
    22  H    5.599784   4.710753   6.964192   4.261820   2.038508
    23  C    3.079003   3.742000   4.525501   5.565767   6.545665
    24  H    2.902941   3.467613   5.131961   5.706824   6.344977
    25  H    3.473645   4.418422   4.424165   5.836221   7.175488
    26  H    4.037553   4.490666   5.258696   6.397213   7.228410
    27  C    4.684731   5.196725   1.437902   3.328203   5.819203
    28  H    4.923648   5.219930   2.114218   2.909593   5.273978
    29  H    5.117144   5.530361   2.098571   4.063435   6.290163
    30  H    5.383365   6.055276   2.033877   4.061784   6.696924
    31  C    2.538619   2.944046   3.004379   1.296768   3.275821
    32  O    1.609657   2.429402   3.221465   2.301962   3.785301
    33  C    3.888430   4.295581   3.998302   2.355737   4.016682
    34  H    4.650146   5.019195   3.970980   2.512307   4.429950
    35  H    4.289318   4.427504   4.928332   2.812111   3.626864
    36  H    4.117365   4.774459   4.325661   3.241204   4.934741
                   11         12         13         14         15
    11  H    0.000000
    12  H    1.786152   0.000000
    13  H    2.404813   2.450180   0.000000
    14  H    2.664243   3.809054   2.510257   0.000000
    15  H    4.365271   4.916768   2.610336   2.415498   0.000000
    16  H    5.928079   5.772103   4.039302   4.269543   2.804519
    17  H    5.330505   4.459556   3.750577   4.816996   4.236787
    18  O    5.163311   4.879101   2.826367   4.122003   2.319755
    19  C    2.694913   2.598781   4.486540   4.438663   6.359088
    20  H    3.108470   2.402074   4.682014   5.164631   6.840760
    21  H    2.516010   2.971585   4.721411   4.468070   6.562198
    22  H    3.665297   3.595602   5.346465   4.995869   6.981102
    23  C    6.388829   5.812717   4.051314   5.532203   3.696798
    24  H    6.400946   5.534846   4.202822   5.900127   4.411126
    25  H    7.171420   6.685517   4.880525   5.987908   4.026265
    26  H    6.798721   6.251295   4.407825   6.077205   4.106471
    27  C    5.643990   6.565274   4.746257   2.986915   2.606040
    28  H    5.134923   6.244026   4.726527   2.518618   3.079042
    29  H    5.749733   6.746221   4.697692   3.187459   2.348507
    30  H    6.683229   7.569263   5.787668   4.027557   3.562421
    31  C    4.513806   4.581705   4.095989   3.234378   4.018133
    32  O    4.947661   4.611253   4.005971   3.884770   4.018981
    33  C    5.559442   5.679373   5.515466   4.353610   5.357541
    34  H    5.779140   6.209447   5.913577   4.298607   5.482663
    35  H    5.443401   5.434299   5.752350   4.757306   6.044708
    36  H    6.501157   6.453672   6.192520   5.222517   5.857910
                   16         17         18         19         20
    16  H    0.000000
    17  H    2.539378   0.000000
    18  O    2.096944   2.831610   0.000000
    19  C    7.042130   5.775605   6.809059   0.000000
    20  H    7.385924   5.806964   6.967804   1.102989   0.000000
    21  H    7.637124   6.604206   7.277855   1.103256   1.798641
    22  H    7.415531   6.136230   7.459705   1.095373   1.793682
    23  C    2.594009   2.969498   1.439737   7.825788   7.849889
    24  H    3.055854   2.461677   2.116651   7.538702   7.438430
    25  H    2.333461   3.292209   2.099224   8.509605   8.608961
    26  H    3.557751   3.972032   2.032852   8.460453   8.432671
    27  C    3.737801   5.626171   4.538894   7.119065   7.895253
    28  H    4.423330   5.935629   5.124658   6.469821   7.336992
    29  H    4.093389   6.065717   4.458755   7.574049   8.300678
    30  H    4.159993   6.230686   5.281532   7.985667   8.791827
    31  C    3.381155   3.257201   4.462555   4.544485   5.169346
    32  O    2.640551   2.069592   3.774210   5.074862   5.466596
    33  C    4.547744   4.402144   5.885296   5.009552   5.717015
    34  H    5.039229   5.293902   6.397003   5.368644   6.217007
    35  H    5.349837   4.724995   6.471547   4.372095   5.045194
    36  H    4.522869   4.408956   6.116965   5.927277   6.535919
                   21         22         23         24         25
    21  H    0.000000
    22  H    1.792427   0.000000
    23  C    8.396334   8.443586   0.000000
    24  H    8.206940   8.127830   1.101313   0.000000
    25  H    9.114160   9.035354   1.101702   1.803217   0.000000
    26  H    8.950398   9.166664   1.094817   1.785332   1.792949
    27  C    7.265047   7.426357   5.722834   6.421477   5.643460
    28  H    6.524958   6.724562   6.406321   7.001627   6.446152
    29  H    7.625392   8.008337   5.663040   6.478867   5.646605
    30  H    8.165767   8.192513   6.320477   7.041618   6.063414
    31  C    5.217760   4.555168   5.384464   5.381235   5.516705
    32  O    5.866308   5.186825   4.438001   4.302102   4.540921
    33  C    5.698969   4.688293   6.716276   6.664559   6.727718
    34  H    5.886063   5.018322   7.346616   7.424719   7.325377
    35  H    5.134280   3.878972   7.288905   7.106371   7.411739
    36  H    6.692162   5.576522   6.752923   6.660394   6.616742
                   26         27         28         29         30
    26  H    0.000000
    27  C    6.312995   0.000000
    28  H    7.021451   1.102502   0.000000
    29  H    6.074430   1.101837   1.802434   0.000000
    30  H    6.940668   1.094848   1.788271   1.791835   0.000000
    31  C    6.350066   3.936582   3.747530   4.789491   4.453542
    32  O    5.467598   4.465838   4.552332   5.205210   4.969139
    33  C    7.723954   4.701572   4.374959   5.699522   4.965371
    34  H    8.313351   4.344513   3.865864   5.388324   4.501464
    35  H    8.284461   5.609509   5.167344   6.561287   5.960575
    36  H    7.811113   5.159508   5.018034   6.183526   5.259395
                   31         32         33         34         35
    31  C    0.000000
    32  O    1.282071   0.000000
    33  C    1.482243   2.368992   0.000000
    34  H    2.129892   3.227252   1.094301   0.000000
    35  H    2.095195   2.881553   1.101598   1.779214   0.000000
    36  H    2.126444   2.508351   1.093887   1.810287   1.780646
                   36
    36  H    0.000000
 Stoichiometry    C11H19O6(1+)
 Framework group  C1[X(C11H19O6)]
 Deg. of freedom   102
 Full point group                 C1      NOp   1
 Largest Abelian subgroup         C1      NOp   1
 Largest concise Abelian subgroup C1      NOp   1
                         Standard orientation:                         
 ---------------------------------------------------------------------
 Center     Atomic      Atomic             Coordinates (Angstroms)
 Number     Number       Type             X           Y           Z
 ---------------------------------------------------------------------
      1          6           0        2.093507   -1.395579   -1.087845
      2          6           0        0.622216   -1.105322   -0.844815
      3          6           0        0.164055    0.335694   -1.037805
      4          6           0       -1.373471    0.470367   -0.860849
      5          6           0       -1.865865   -0.434389    0.290073
      6          6           0       -0.673449   -0.888905    1.143674
      7          8           0        0.310077   -1.557309    0.513371
      8          8           0       -1.791104    1.786169   -0.579534
      9          8           0        0.851331    1.277173   -0.118521
     10          8           0        2.895104   -0.564492   -0.274439
     11          1           0        2.307287   -1.243988   -2.165529
     12          1           0        2.266284   -2.465866   -0.863349
     13          1           0        0.033495   -1.723296   -1.546450
     14          1           0        0.490420    0.699197   -2.019883
     15          1           0       -1.834124    0.084008   -1.790388
     16          1           0       -2.559206    0.153099    0.917897
     17          1           0       -0.930095   -1.420824    2.065591
     18          8           0       -2.493514   -1.558868   -0.291246
     19          6           0        4.283702   -0.905284   -0.365079
     20          1           0        4.458945   -1.942604   -0.033654
     21          1           0        4.658292   -0.785061   -1.395809
     22          1           0        4.820960   -0.217130    0.296464
     23          6           0       -3.357833   -2.293724    0.595198
     24          1           0       -2.791665   -2.863274    1.348828
     25          1           0       -4.069604   -1.616838    1.094150
     26          1           0       -3.907504   -2.997333   -0.038379
     27          6           0       -1.716837    2.685795   -1.698784
     28          1           0       -0.674874    2.931289   -1.962519
     29          1           0       -2.231861    2.261362   -2.575511
     30          1           0       -2.229378    3.601242   -1.385810
     31          6           0        0.612649    1.299792    1.155891
     32          8           0       -0.093433    0.455184    1.813002
     33          6           0        1.274475    2.386589    1.916090
     34          1           0        1.369811    3.285392    1.299195
     35          1           0        2.286559    2.038416    2.176822
     36          1           0        0.729677    2.589168    2.842775
 ---------------------------------------------------------------------
 Rotational constants (GHZ):      0.6082838      0.3995709      0.3288116
 Leave Link  202 at Sun Jan  8 00:32:02 2017, MaxMem= 13421772800 cpu:         0.7
 (Enter /share/apps//g09/l301.exe)
 Standard basis: 6-311+G(d,p) (5D, 7F)
 Ernie: Thresh=  0.10000D-02 Tol=  0.10000D-05 Strict=F.
 There are   505 symmetry adapted cartesian basis functions of A   symmetry.
 There are   488 symmetry adapted basis functions of A   symmetry.
   488 basis functions,   764 primitive gaussians,   505 cartesian basis functions
    66 alpha electrons       66 beta electrons
       nuclear repulsion energy      1450.0359593391 Hartrees.
 IExCor= 1009 DFT=T Ex+Corr=PBE1PBE ExCW=0 ScaHFX=  0.250000
 ScaDFX=  0.750000  0.750000  1.000000  1.000000 ScalE2=  1.000000  1.000000
 IRadAn=      0 IRanWt=     -1 IRanGd=            0 ICorTp=0 IEmpDi=131
 NAtoms=   36 NActive=   36 NUniq=   36 SFac= 1.00D+00 NAtFMM=   60 NAOKFM=F Big=F
 Integral buffers will be    131072 words long.
 Raffenetti 2 integral format.
 Two-electron integral symmetry is turned on.
 R6Disp:  Grimme-D3 Dispersion energy=       -0.0244624894 Hartrees.
 Nuclear repulsion after empirical dispersion term =     1450.0114968497 Hartrees.
 Leave Link  301 at Sun Jan  8 00:32:02 2017, MaxMem= 13421772800 cpu:         1.5
 (Enter /share/apps//g09/l302.exe)
 NPDir=0 NMtPBC=     1 NCelOv=     1 NCel=       1 NClECP=     1 NCelD=      1
         NCelK=      1 NCelE2=     1 NClLst=     1 CellRange=     0.0.
 One-electron integrals computed using PRISM.
 NBasis=   488 RedAO= T EigKep=  1.52D-06  NBF=   488
 NBsUse=   488 1.00D-06 EigRej= -1.00D+00 NBFU=   488
 Precomputing XC quadrature grid using
 IXCGrd= 4 IRadAn=           0 IRanWt=          -1 IRanGd=           0 AccXCQ= 0.00D+00.
 Generated NRdTot=       0 NPtTot=           0 NUsed=           0 NTot=          32
 NSgBfM=   503   503   504   504   504 MxSgAt=    36 MxSgA2=    36.
 Leave Link  302 at Sun Jan  8 00:32:03 2017, MaxMem= 13421772800 cpu:        12.8
 (Enter /share/apps//g09/l303.exe)
 DipDrv:  MaxL=1.
 Leave Link  303 at Sun Jan  8 00:32:03 2017, MaxMem= 13421772800 cpu:         6.5
 (Enter /share/apps//g09/l401.exe)
 ExpMin= 4.38D-02 ExpMax= 8.59D+03 ExpMxC= 1.30D+03 IAcc=2 IRadAn=         4 AccDes= 0.00D+00
 Harris functional with IExCor= 1009 and IRadAn=       4 diagonalized for initial guess.
 HarFok:  IExCor= 1009 AccDes= 0.00D+00 IRadAn=         4 IDoV= 1 UseB2=F ITyADJ=14
 ICtDFT=  3500011 ScaDFX=  1.000000  1.000000  1.000000  1.000000
 FoFCou: FMM=F IPFlag=           0 FMFlag=      100000 FMFlg1=           0
         NFxFlg=           0 DoJE=T BraDBF=F KetDBF=T FulRan=T
         wScrn=  0.000000 ICntrl=     500 IOpCl=  0 I1Cent=   200000004 NGrid=           0
         NMat0=    1 NMatS0=      1 NMatT0=    0 NMatD0=    1 NMtDS0=    0 NMtDT0=    0
 Petite list used in FoFCou.
 Harris En= -881.105595276852    
 JPrj=0 DoOrth=F DoCkMO=F.
 Leave Link  401 at Sun Jan  8 00:32:05 2017, MaxMem= 13421772800 cpu:        23.6
 (Enter /share/apps//g09/l502.exe)
 Closed shell SCF:
 Using DIIS extrapolation, IDIIS=  1040.
 Integral symmetry usage will be decided dynamically.
 Keep R1 ints in memory in canonical form, NReq=7183787934.
 IVT=      797493 IEndB=      797493 NGot= 13421772800 MDV=  6302761722
 LenX=  6302761722 LenY=  6302506192
 Requested convergence on RMS density matrix=1.00D-08 within 128 cycles.
 Requested convergence on MAX density matrix=1.00D-06.
 Requested convergence on             energy=1.00D-06.
 No special actions if energy rises.
 FoFCou: FMM=F IPFlag=           0 FMFlag=           0 FMFlg1=           0
         NFxFlg=           0 DoJE=F BraDBF=F KetDBF=F FulRan=T
         wScrn=  0.000000 ICntrl=     600 IOpCl=  0 I1Cent=           0 NGrid=           0
         NMat0=    1 NMatS0= 119316 NMatT0=    0 NMatD0=    1 NMtDS0=    0 NMtDT0=    0
 Symmetry not used in FoFCou.

 Cycle   1  Pass 1  IDiag  1:
 E= -880.655697063976    
 DIIS: error= 1.26D-02 at cycle   1 NSaved=   1.
 NSaved= 1 IEnMin= 1 EnMin= -880.655697063976     IErMin= 1 ErrMin= 1.26D-02
 ErrMax= 1.26D-02  0.00D+00 EMaxC= 1.00D-01 BMatC= 3.69D-01 BMatP= 3.69D-01
 IDIUse=3 WtCom= 8.74D-01 WtEn= 1.26D-01
 Coeff-Com:  0.100D+01
 Coeff-En:   0.100D+01
 Coeff:      0.100D+01
 Gap=     0.132 Goal=   None    Shift=    0.000
 GapD=    0.132 DampG=1.000 DampE=0.500 DampFc=0.5000 IDamp=-1.
 Damping current iteration by 5.00D-01
 RMSDP=1.77D-02 MaxDP=2.48D+00              OVMax= 1.26D-01

 Cycle   2  Pass 1  IDiag  1:
 E= -880.780536867724     Delta-E=       -0.124839803749 Rises=F Damp=T
 DIIS: error= 3.19D-03 at cycle   2 NSaved=   2.
 NSaved= 2 IEnMin= 2 EnMin= -880.780536867724     IErMin= 2 ErrMin= 3.19D-03
 ErrMax= 3.19D-03  0.00D+00 EMaxC= 1.00D-01 BMatC= 2.85D-02 BMatP= 3.69D-01
 IDIUse=3 WtCom= 9.68D-01 WtEn= 3.19D-02
 Coeff-Com: -0.143D-01 0.101D+01
 Coeff-En:   0.384D-01 0.962D+00
 Coeff:     -0.127D-01 0.101D+01
 Gap=     0.232 Goal=   None    Shift=    0.000
 RMSDP=7.78D-03 MaxDP=1.29D+00 DE=-1.25D-01 OVMax= 8.97D-02

 Cycle   3  Pass 1  IDiag  1:
 E= -880.913291492355     Delta-E=       -0.132754624631 Rises=F Damp=F
 DIIS: error= 4.66D-03 at cycle   3 NSaved=   3.
 NSaved= 3 IEnMin= 3 EnMin= -880.913291492355     IErMin= 2 ErrMin= 3.19D-03
 ErrMax= 4.66D-03  0.00D+00 EMaxC= 1.00D-01 BMatC= 1.97D-02 BMatP= 2.85D-02
 IDIUse=3 WtCom= 9.53D-01 WtEn= 4.66D-02
 Coeff-Com: -0.928D-01 0.475D+00 0.618D+00
 Coeff-En:   0.000D+00 0.000D+00 0.100D+01
 Coeff:     -0.884D-01 0.453D+00 0.635D+00
 Gap=     0.204 Goal=   None    Shift=    0.000
 RMSDP=1.97D-03 MaxDP=2.27D-01 DE=-1.33D-01 OVMax= 2.29D-02

 Cycle   4  Pass 1  IDiag  1:
 E= -880.925236742957     Delta-E=       -0.011945250602 Rises=F Damp=F
 DIIS: error= 1.79D-03 at cycle   4 NSaved=   4.
 NSaved= 4 IEnMin= 4 EnMin= -880.925236742957     IErMin= 4 ErrMin= 1.79D-03
 ErrMax= 1.79D-03  0.00D+00 EMaxC= 1.00D-01 BMatC= 3.80D-03 BMatP= 1.97D-02
 IDIUse=3 WtCom= 9.82D-01 WtEn= 1.79D-02
 Coeff-Com: -0.466D-01 0.150D+00 0.357D+00 0.540D+00
 Coeff-En:   0.000D+00 0.000D+00 0.130D+00 0.870D+00
 Coeff:     -0.458D-01 0.148D+00 0.352D+00 0.546D+00
 Gap=     0.206 Goal=   None    Shift=    0.000
 RMSDP=1.28D-03 MaxDP=1.99D-01 DE=-1.19D-02 OVMax= 7.59D-03

 Cycle   5  Pass 1  IDiag  1:
 E= -880.927967613595     Delta-E=       -0.002730870637 Rises=F Damp=F
 DIIS: error= 3.80D-04 at cycle   5 NSaved=   5.
 NSaved= 5 IEnMin= 5 EnMin= -880.927967613595     IErMin= 5 ErrMin= 3.80D-04
 ErrMax= 3.80D-04  0.00D+00 EMaxC= 1.00D-01 BMatC= 1.61D-04 BMatP= 3.80D-03
 IDIUse=3 WtCom= 9.96D-01 WtEn= 3.80D-03
 Coeff-Com: -0.155D-01 0.376D-01 0.124D+00 0.255D+00 0.599D+00
 Coeff-En:   0.000D+00 0.000D+00 0.000D+00 0.000D+00 0.100D+01
 Coeff:     -0.154D-01 0.375D-01 0.123D+00 0.254D+00 0.600D+00
 Gap=     0.207 Goal=   None    Shift=    0.000
 RMSDP=1.28D-04 MaxDP=1.59D-02 DE=-2.73D-03 OVMax= 2.69D-03

 Cycle   6  Pass 1  IDiag  1:
 E= -880.928047599749     Delta-E=       -0.000079986155 Rises=F Damp=F
 DIIS: error= 2.69D-04 at cycle   6 NSaved=   6.
 NSaved= 6 IEnMin= 6 EnMin= -880.928047599749     IErMin= 6 ErrMin= 2.69D-04
 ErrMax= 2.69D-04  0.00D+00 EMaxC= 1.00D-01 BMatC= 4.83D-05 BMatP= 1.61D-04
 IDIUse=3 WtCom= 9.97D-01 WtEn= 2.69D-03
 Coeff-Com: -0.610D-02 0.110D-01 0.495D-01 0.120D+00 0.404D+00 0.421D+00
 Coeff-En:   0.000D+00 0.000D+00 0.000D+00 0.000D+00 0.231D+00 0.769D+00
 Coeff:     -0.608D-02 0.110D-01 0.494D-01 0.120D+00 0.404D+00 0.422D+00
 Gap=     0.208 Goal=   None    Shift=    0.000
 RMSDP=8.87D-05 MaxDP=1.02D-02 DE=-8.00D-05 OVMax= 1.25D-03

 Cycle   7  Pass 1  IDiag  1:
 E= -880.928081783420     Delta-E=       -0.000034183671 Rises=F Damp=F
 DIIS: error= 3.20D-05 at cycle   7 NSaved=   7.
 NSaved= 7 IEnMin= 7 EnMin= -880.928081783420     IErMin= 7 ErrMin= 3.20D-05
 ErrMax= 3.20D-05  0.00D+00 EMaxC= 1.00D-01 BMatC= 1.16D-06 BMatP= 4.83D-05
 IDIUse=1 WtCom= 1.00D+00 WtEn= 0.00D+00
 Coeff-Com: -0.197D-02 0.298D-02 0.160D-01 0.431D-01 0.163D+00 0.212D+00
 Coeff-Com:  0.565D+00
 Coeff:     -0.197D-02 0.298D-02 0.160D-01 0.431D-01 0.163D+00 0.212D+00
 Coeff:      0.565D+00
 Gap=     0.207 Goal=   None    Shift=    0.000
 RMSDP=1.72D-05 MaxDP=2.64D-03 DE=-3.42D-05 OVMax= 2.08D-04

 Cycle   8  Pass 1  IDiag  1:
 E= -880.928082689011     Delta-E=       -0.000000905591 Rises=F Damp=F
 DIIS: error= 1.12D-05 at cycle   8 NSaved=   8.
 NSaved= 8 IEnMin= 8 EnMin= -880.928082689011     IErMin= 8 ErrMin= 1.12D-05
 ErrMax= 1.12D-05  0.00D+00 EMaxC= 1.00D-01 BMatC= 1.09D-07 BMatP= 1.16D-06
 IDIUse=1 WtCom= 1.00D+00 WtEn= 0.00D+00
 Coeff-Com: -0.363D-04-0.179D-03 0.110D-03 0.271D-02 0.167D-01 0.354D-01
 Coeff-Com:  0.256D+00 0.689D+00
 Coeff:     -0.363D-04-0.179D-03 0.110D-03 0.271D-02 0.167D-01 0.354D-01
 Coeff:      0.256D+00 0.689D+00
 Gap=     0.207 Goal=   None    Shift=    0.000
 RMSDP=1.05D-05 MaxDP=2.05D-03 DE=-9.06D-07 OVMax= 5.37D-05

 Cycle   9  Pass 1  IDiag  1:
 E= -880.928082763894     Delta-E=       -0.000000074884 Rises=F Damp=F
 DIIS: error= 4.51D-06 at cycle   9 NSaved=   9.
 NSaved= 9 IEnMin= 9 EnMin= -880.928082763894     IErMin= 9 ErrMin= 4.51D-06
 ErrMax= 4.51D-06  0.00D+00 EMaxC= 1.00D-01 BMatC= 1.98D-08 BMatP= 1.09D-07
 IDIUse=1 WtCom= 1.00D+00 WtEn= 0.00D+00
 Coeff-Com:  0.840D-04-0.254D-03-0.891D-03-0.105D-02-0.116D-02 0.525D-02
 Coeff-Com:  0.103D+00 0.383D+00 0.513D+00
 Coeff:      0.840D-04-0.254D-03-0.891D-03-0.105D-02-0.116D-02 0.525D-02
 Coeff:      0.103D+00 0.383D+00 0.513D+00
 Gap=     0.207 Goal=   None    Shift=    0.000
 RMSDP=2.03D-06 MaxDP=2.90D-04 DE=-7.49D-08 OVMax= 2.30D-05

 Cycle  10  Pass 1  IDiag  1:
 E= -880.928082777403     Delta-E=       -0.000000013509 Rises=F Damp=F
 DIIS: error= 1.20D-06 at cycle  10 NSaved=  10.
 NSaved=10 IEnMin=10 EnMin= -880.928082777403     IErMin=10 ErrMin= 1.20D-06
 ErrMax= 1.20D-06  0.00D+00 EMaxC= 1.00D-01 BMatC= 1.18D-09 BMatP= 1.98D-08
 IDIUse=1 WtCom= 1.00D+00 WtEn= 0.00D+00
 Coeff-Com:  0.466D-04-0.100D-03-0.484D-03-0.903D-03-0.298D-02-0.249D-02
 Coeff-Com:  0.164D-01 0.913D-01 0.235D+00 0.664D+00
 Coeff:      0.466D-04-0.100D-03-0.484D-03-0.903D-03-0.298D-02-0.249D-02
 Coeff:      0.164D-01 0.913D-01 0.235D+00 0.664D+00
 Gap=     0.207 Goal=   None    Shift=    0.000
 RMSDP=7.96D-07 MaxDP=1.28D-04 DE=-1.35D-08 OVMax= 5.52D-06

 Cycle  11  Pass 1  IDiag  1:
 E= -880.928082778292     Delta-E=       -0.000000000889 Rises=F Damp=F
 DIIS: error= 2.43D-07 at cycle  11 NSaved=  11.
 NSaved=11 IEnMin=11 EnMin= -880.928082778292     IErMin=11 ErrMin= 2.43D-07
 ErrMax= 2.43D-07  0.00D+00 EMaxC= 1.00D-01 BMatC= 5.82D-11 BMatP= 1.18D-09
 IDIUse=1 WtCom= 1.00D+00 WtEn= 0.00D+00
 Coeff-Com:  0.141D-04-0.278D-04-0.157D-03-0.313D-03-0.115D-02-0.123D-02
 Coeff-Com:  0.185D-02 0.184D-01 0.680D-01 0.273D+00 0.642D+00
 Coeff:      0.141D-04-0.278D-04-0.157D-03-0.313D-03-0.115D-02-0.123D-02
 Coeff:      0.185D-02 0.184D-01 0.680D-01 0.273D+00 0.642D+00
 Gap=     0.207 Goal=   None    Shift=    0.000
 RMSDP=1.06D-07 MaxDP=7.85D-06 DE=-8.89D-10 OVMax= 1.41D-06

 Cycle  12  Pass 1  IDiag  1:
 E= -880.928082778389     Delta-E=       -0.000000000097 Rises=F Damp=F
 DIIS: error= 8.94D-08 at cycle  12 NSaved=  12.
 NSaved=12 IEnMin=12 EnMin= -880.928082778389     IErMin=12 ErrMin= 8.94D-08
 ErrMax= 8.94D-08  0.00D+00 EMaxC= 1.00D-01 BMatC= 1.11D-11 BMatP= 5.82D-11
 IDIUse=1 WtCom= 1.00D+00 WtEn= 0.00D+00
 Coeff-Com:  0.713D-06-0.202D-06-0.170D-04-0.402D-04-0.187D-03-0.269D-03
 Coeff-Com: -0.127D-02-0.292D-02 0.349D-02 0.546D-01 0.338D+00 0.609D+00
 Coeff:      0.713D-06-0.202D-06-0.170D-04-0.402D-04-0.187D-03-0.269D-03
 Coeff:     -0.127D-02-0.292D-02 0.349D-02 0.546D-01 0.338D+00 0.609D+00
 Gap=     0.207 Goal=   None    Shift=    0.000
 RMSDP=4.28D-08 MaxDP=6.26D-06 DE=-9.69D-11 OVMax= 7.62D-07

 Cycle  13  Pass 1  IDiag  1:
 E= -880.928082778338     Delta-E=        0.000000000051 Rises=F Damp=F
 DIIS: error= 2.69D-08 at cycle  13 NSaved=  13.
 NSaved=13 IEnMin=12 EnMin= -880.928082778389     IErMin=13 ErrMin= 2.69D-08
 ErrMax= 2.69D-08  0.00D+00 EMaxC= 1.00D-01 BMatC= 5.99D-13 BMatP= 1.11D-11
 IDIUse=1 WtCom= 1.00D+00 WtEn= 0.00D+00
 Coeff-Com: -0.511D-06 0.153D-05 0.178D-05 0.951D-06-0.111D-04-0.309D-04
 Coeff-Com: -0.676D-03-0.231D-02-0.242D-02 0.599D-02 0.105D+00 0.270D+00
 Coeff-Com:  0.624D+00
 Coeff:     -0.511D-06 0.153D-05 0.178D-05 0.951D-06-0.111D-04-0.309D-04
 Coeff:     -0.676D-03-0.231D-02-0.242D-02 0.599D-02 0.105D+00 0.270D+00
 Coeff:      0.624D+00
 Gap=     0.207 Goal=   None    Shift=    0.000
 RMSDP=1.37D-08 MaxDP=1.84D-06 DE= 5.09D-11 OVMax= 1.34D-07

 Cycle  14  Pass 1  IDiag  1:
 E= -880.928082778370     Delta-E=       -0.000000000032 Rises=F Damp=F
 DIIS: error= 9.31D-09 at cycle  14 NSaved=  14.
 NSaved=14 IEnMin=12 EnMin= -880.928082778389     IErMin=14 ErrMin= 9.31D-09
 ErrMax= 9.31D-09  0.00D+00 EMaxC= 1.00D-01 BMatC= 8.51D-14 BMatP= 5.99D-13
 IDIUse=1 WtCom= 1.00D+00 WtEn= 0.00D+00
 Coeff-Com: -0.307D-06 0.748D-06 0.248D-05 0.404D-05 0.125D-04 0.124D-04
 Coeff-Com: -0.231D-03-0.907D-03-0.162D-02-0.307D-02 0.175D-01 0.753D-01
 Coeff-Com:  0.323D+00 0.590D+00
 Coeff:     -0.307D-06 0.748D-06 0.248D-05 0.404D-05 0.125D-04 0.124D-04
 Coeff:     -0.231D-03-0.907D-03-0.162D-02-0.307D-02 0.175D-01 0.753D-01
 Coeff:      0.323D+00 0.590D+00
 Gap=     0.207 Goal=   None    Shift=    0.000
 RMSDP=1.38D-08 MaxDP=2.10D-06 DE=-3.18D-11 OVMax= 4.90D-08

 Cycle  15  Pass 1  IDiag  1:
 E= -880.928082778372     Delta-E=       -0.000000000002 Rises=F Damp=F
 DIIS: error= 1.62D-09 at cycle  15 NSaved=  15.
 NSaved=15 IEnMin=12 EnMin= -880.928082778389     IErMin=15 ErrMin= 1.62D-09
 ErrMax= 1.62D-09  0.00D+00 EMaxC= 1.00D-01 BMatC= 3.41D-15 BMatP= 8.51D-14
 IDIUse=1 WtCom= 1.00D+00 WtEn= 0.00D+00
 Coeff-Com: -0.700D-07 0.159D-06 0.749D-06 0.130D-05 0.515D-05 0.649D-05
 Coeff-Com: -0.350D-04-0.149D-03-0.374D-03-0.150D-02-0.123D-02 0.746D-02
 Coeff-Com:  0.723D-01 0.228D+00 0.696D+00
 Coeff:     -0.700D-07 0.159D-06 0.749D-06 0.130D-05 0.515D-05 0.649D-05
 Coeff:     -0.350D-04-0.149D-03-0.374D-03-0.150D-02-0.123D-02 0.746D-02
 Coeff:      0.723D-01 0.228D+00 0.696D+00
 Gap=     0.207 Goal=   None    Shift=    0.000
 RMSDP=5.76D-08 MaxDP=1.03D-05 DE=-2.27D-12 OVMax= 1.27D-08

 Cycle  16  Pass 1  IDiag  1:
 E= -880.928082778362     Delta-E=        0.000000000010 Rises=F Damp=F
 DIIS: error= 7.91D-10 at cycle  16 NSaved=  16.
 NSaved=16 IEnMin=12 EnMin= -880.928082778389     IErMin=16 ErrMin= 7.91D-10
 ErrMax= 7.91D-10  0.00D+00 EMaxC= 1.00D-01 BMatC= 2.89D-16 BMatP= 3.41D-15
 IDIUse=1 WtCom= 1.00D+00 WtEn= 0.00D+00
 Large coefficients: NSaved= 16 BigCof=    0.00 CofMax=   10.00 Det=-2.37D-15
 Inversion failed.  Reducing to 15 matrices.
 Coeff-Com: -0.543D-09 0.837D-07 0.122D-06 0.839D-06 0.153D-05-0.318D-06
 Coeff-Com: -0.174D-05-0.446D-04-0.416D-03-0.164D-02-0.159D-02 0.122D-01
 Coeff-Com:  0.634D-01 0.298D+00 0.630D+00
 Coeff:     -0.543D-09 0.837D-07 0.122D-06 0.839D-06 0.153D-05-0.318D-06
 Coeff:     -0.174D-05-0.446D-04-0.416D-03-0.164D-02-0.159D-02 0.122D-01
 Coeff:      0.634D-01 0.298D+00 0.630D+00
 Gap=     0.207 Goal=   None    Shift=    0.000
 RMSDP=4.50D-08 MaxDP=8.44D-06 DE= 1.05D-11 OVMax= 3.66D-09

 Cycle  17  Pass 1  IDiag  1:
 E= -880.928082778378     Delta-E=       -0.000000000016 Rises=F Damp=F
 DIIS: error= 2.00D-10 at cycle  17 NSaved=  16.
 NSaved=16 IEnMin=11 EnMin= -880.928082778389     IErMin=16 ErrMin= 2.00D-10
 ErrMax= 2.00D-10  0.00D+00 EMaxC= 1.00D-01 BMatC= 4.85D-17 BMatP= 2.89D-16
 IDIUse=1 WtCom= 1.00D+00 WtEn= 0.00D+00
 Large coefficients: NSaved= 16 BigCof=    0.00 CofMax=   10.00 Det=-4.09D-16
 Inversion failed.  Reducing to 15 matrices.
 Coeff-Com:  0.248D-07 0.466D-07 0.199D-06 0.372D-06 0.266D-05 0.830D-05
 Coeff-Com:  0.299D-05-0.675D-04-0.629D-03-0.144D-02-0.202D-02 0.461D-02
 Coeff-Com:  0.664D-01 0.317D+00 0.616D+00
 Coeff:      0.248D-07 0.466D-07 0.199D-06 0.372D-06 0.266D-05 0.830D-05
 Coeff:      0.299D-05-0.675D-04-0.629D-03-0.144D-02-0.202D-02 0.461D-02
 Coeff:      0.664D-01 0.317D+00 0.616D+00
 Gap=     0.207 Goal=   None    Shift=    0.000
 RMSDP=3.52D-09 MaxDP=9.16D-07 DE=-1.64D-11 OVMax= 1.29D-09

 SCF Done:  E(RPBE1PBE) =  -880.928082778     A.U. after   17 cycles
            NFock= 17  Conv=0.35D-08     -V/T= 2.0043
 KE= 8.771274235806D+02 PE=-4.943038509392D+03 EE= 1.734971506183D+03
 Leave Link  502 at Sun Jan  8 00:36:09 2017, MaxMem= 13421772800 cpu:      1203.7
 (Enter /share/apps//g09/l601.exe)
 Copying SCF densities to generalized density rwf, IOpCl= 0 IROHF=0.

 **********************************************************************

            Population analysis using the SCF density.

 **********************************************************************

 Orbital symmetries:
       Occupied  (A) (A) (A) (A) (A) (A) (A) (A) (A) (A) (A) (A)
                 (A) (A) (A) (A) (A) (A) (A) (A) (A) (A) (A) (A)
                 (A) (A) (A) (A) (A) (A) (A) (A) (A) (A) (A) (A)
                 (A) (A) (A) (A) (A) (A) (A) (A) (A) (A) (A) (A)
                 (A) (A) (A) (A) (A) (A) (A) (A) (A) (A) (A) (A)
                 (A) (A) (A) (A) (A) (A)
       Virtual   (A) (A) (A) (A) (A) (A) (A) (A) (A) (A) (A) (A)
                 (A) (A) (A) (A) (A) (A) (A) (A) (A) (A) (A) (A)
                 (A) (A) (A) (A) (A) (A) (A) (A) (A) (A) (A) (A)
                 (A) (A) (A) (A) (A) (A) (A) (A) (A) (A) (A) (A)
                 (A) (A) (A) (A) (A) (A) (A) (A) (A) (A) (A) (A)
                 (A) (A) (A) (A) (A) (A) (A) (A) (A) (A) (A) (A)
                 (A) (A) (A) (A) (A) (A) (A) (A) (A) (A) (A) (A)
                 (A) (A) (A) (A) (A) (A) (A) (A) (A) (A) (A) (A)
                 (A) (A) (A) (A) (A) (A) (A) (A) (A) (A) (A) (A)
                 (A) (A) (A) (A) (A) (A) (A) (A) (A) (A) (A) (A)
                 (A) (A) (A) (A) (A) (A) (A) (A) (A) (A) (A) (A)
                 (A) (A) (A) (A) (A) (A) (A) (A) (A) (A) (A) (A)
                 (A) (A) (A) (A) (A) (A) (A) (A) (A) (A) (A) (A)
                 (A) (A) (A) (A) (A) (A) (A) (A) (A) (A) (A) (A)
                 (A) (A) (A) (A) (A) (A) (A) (A) (A) (A) (A) (A)
                 (A) (A) (A) (A) (A) (A) (A) (A) (A) (A) (A) (A)
                 (A) (A) (A) (A) (A) (A) (A) (A) (A) (A) (A) (A)
                 (A) (A) (A) (A) (A) (A) (A) (A) (A) (A) (A) (A)
                 (A) (A) (A) (A) (A) (A) (A) (A) (A) (A) (A) (A)
                 (A) (A) (A) (A) (A) (A) (A) (A) (A) (A) (A) (A)
                 (A) (A) (A) (A) (A) (A) (A) (A) (A) (A) (A) (A)
                 (A) (A) (A) (A) (A) (A) (A) (A) (A) (A) (A) (A)
                 (A) (A) (A) (A) (A) (A) (A) (A) (A) (A) (A) (A)
                 (A) (A) (A) (A) (A) (A) (A) (A) (A) (A) (A) (A)
                 (A) (A) (A) (A) (A) (A) (A) (A) (A) (A) (A) (A)
                 (A) (A) (A) (A) (A) (A) (A) (A) (A) (A) (A) (A)
                 (A) (A) (A) (A) (A) (A) (A) (A) (A) (A) (A) (A)
                 (A) (A) (A) (A) (A) (A) (A) (A) (A) (A) (A) (A)
                 (A) (A) (A) (A) (A) (A) (A) (A) (A) (A) (A) (A)
                 (A) (A) (A) (A) (A) (A) (A) (A) (A) (A) (A) (A)
                 (A) (A) (A) (A) (A) (A) (A) (A) (A) (A) (A) (A)
                 (A) (A) (A) (A) (A) (A) (A) (A) (A) (A) (A) (A)
                 (A) (A) (A) (A) (A) (A) (A) (A) (A) (A) (A) (A)
                 (A) (A) (A) (A) (A) (A) (A) (A) (A) (A) (A) (A)
                 (A) (A) (A) (A) (A) (A) (A) (A) (A) (A) (A) (A)
                 (A) (A)
 The electronic state is 1-A.
 Alpha  occ. eigenvalues --  -19.44764 -19.43773 -19.40082 -19.36030 -19.35656
 Alpha  occ. eigenvalues --  -19.33753 -10.56672 -10.50836 -10.46676 -10.45034
 Alpha  occ. eigenvalues --  -10.44194 -10.43857 -10.41071 -10.39223 -10.38740
 Alpha  occ. eigenvalues --  -10.38470 -10.37443  -1.34823  -1.27747  -1.25625
 Alpha  occ. eigenvalues --   -1.21881  -1.20547  -1.19185  -1.00894  -0.97819
 Alpha  occ. eigenvalues --   -0.94562  -0.89287  -0.87645  -0.85185  -0.82646
 Alpha  occ. eigenvalues --   -0.80841  -0.78398  -0.77253  -0.76520  -0.71966
 Alpha  occ. eigenvalues --   -0.70845  -0.67600  -0.66758  -0.66147  -0.65557
 Alpha  occ. eigenvalues --   -0.63799  -0.63262  -0.62319  -0.61692  -0.60761
 Alpha  occ. eigenvalues --   -0.60450  -0.59622  -0.58188  -0.57649  -0.57033
 Alpha  occ. eigenvalues --   -0.56810  -0.55932  -0.55422  -0.54163  -0.53701
 Alpha  occ. eigenvalues --   -0.52933  -0.52379  -0.51241  -0.49237  -0.48088
 Alpha  occ. eigenvalues --   -0.47425  -0.46598  -0.46250  -0.42565  -0.41777
 Alpha  occ. eigenvalues --   -0.40145
 Alpha virt. eigenvalues --   -0.19407  -0.11709  -0.11560  -0.09863  -0.09095
 Alpha virt. eigenvalues --   -0.08272  -0.08113  -0.07000  -0.06411  -0.06282
 Alpha virt. eigenvalues --   -0.06162  -0.05799  -0.05775  -0.05099  -0.04342
 Alpha virt. eigenvalues --   -0.04073  -0.03379  -0.03170  -0.03114  -0.02531
 Alpha virt. eigenvalues --   -0.02020  -0.01595  -0.01313  -0.00467  -0.00171
 Alpha virt. eigenvalues --   -0.00079   0.00462   0.00851   0.01089   0.01418
 Alpha virt. eigenvalues --    0.01638   0.02531   0.02740   0.03207   0.03671
 Alpha virt. eigenvalues --    0.04006   0.04256   0.04503   0.05147   0.05330
 Alpha virt. eigenvalues --    0.06106   0.06210   0.06699   0.06840   0.07063
 Alpha virt. eigenvalues --    0.07517   0.07846   0.08325   0.08615   0.08890
 Alpha virt. eigenvalues --    0.09362   0.09828   0.09900   0.10620   0.10916
 Alpha virt. eigenvalues --    0.11351   0.11740   0.11865   0.11977   0.12480
 Alpha virt. eigenvalues --    0.12642   0.13006   0.13701   0.13783   0.14142
 Alpha virt. eigenvalues --    0.14509   0.14887   0.15620   0.15685   0.16575
 Alpha virt. eigenvalues --    0.16693   0.17193   0.17860   0.18172   0.18457
 Alpha virt. eigenvalues --    0.19564   0.19947   0.20246   0.20431   0.21156
 Alpha virt. eigenvalues --    0.22096   0.22344   0.22889   0.23406   0.23994
 Alpha virt. eigenvalues --    0.24042   0.24431   0.24802   0.25493   0.25847
 Alpha virt. eigenvalues --    0.26043   0.26857   0.27691   0.28264   0.28398
 Alpha virt. eigenvalues --    0.29442   0.30136   0.30450   0.31077   0.31505
 Alpha virt. eigenvalues --    0.32107   0.32778   0.32849   0.34113   0.35213
 Alpha virt. eigenvalues --    0.36137   0.36580   0.37004   0.37708   0.38315
 Alpha virt. eigenvalues --    0.39362   0.40300   0.41236   0.41648   0.42525
 Alpha virt. eigenvalues --    0.43619   0.44514   0.44929   0.45827   0.47303
 Alpha virt. eigenvalues --    0.47544   0.47861   0.48030   0.48803   0.49480
 Alpha virt. eigenvalues --    0.49857   0.50343   0.51474   0.52496   0.53344
 Alpha virt. eigenvalues --    0.54273   0.55193   0.55665   0.56061   0.56473
 Alpha virt. eigenvalues --    0.57263   0.57684   0.58084   0.58375   0.58769
 Alpha virt. eigenvalues --    0.59174   0.59952   0.60322   0.60738   0.61722
 Alpha virt. eigenvalues --    0.62010   0.63194   0.63451   0.64217   0.64401
 Alpha virt. eigenvalues --    0.65057   0.65657   0.67713   0.68401   0.69778
 Alpha virt. eigenvalues --    0.71076   0.74853   0.76320   0.78316   0.80654
 Alpha virt. eigenvalues --    0.81843   0.85139   0.86023   0.88290   0.90020
 Alpha virt. eigenvalues --    0.91177   0.92382   0.93458   0.94159   0.96233
 Alpha virt. eigenvalues --    0.97126   0.97544   0.99644   1.01482   1.02442
 Alpha virt. eigenvalues --    1.02968   1.04881   1.05414   1.05867   1.07579
 Alpha virt. eigenvalues --    1.07979   1.09299   1.11154   1.12632   1.15153
 Alpha virt. eigenvalues --    1.15481   1.16718   1.17357   1.18499   1.21318
 Alpha virt. eigenvalues --    1.21553   1.23262   1.23822   1.25123   1.25922
 Alpha virt. eigenvalues --    1.27140   1.27658   1.29032   1.29215   1.30541
 Alpha virt. eigenvalues --    1.32058   1.33295   1.33958   1.34200   1.34666
 Alpha virt. eigenvalues --    1.36029   1.36521   1.40253   1.41360   1.41994
 Alpha virt. eigenvalues --    1.42038   1.43674   1.44767   1.44917   1.45263
 Alpha virt. eigenvalues --    1.45794   1.46028   1.46773   1.46835   1.47359
 Alpha virt. eigenvalues --    1.48154   1.49006   1.49271   1.50302   1.51489
 Alpha virt. eigenvalues --    1.51546   1.52213   1.53662   1.54933   1.56072
 Alpha virt. eigenvalues --    1.56730   1.57332   1.57791   1.58614   1.59598
 Alpha virt. eigenvalues --    1.60045   1.61054   1.61226   1.62787   1.63099
 Alpha virt. eigenvalues --    1.64417   1.65729   1.66677   1.67357   1.67824
 Alpha virt. eigenvalues --    1.70132   1.71729   1.72313   1.73910   1.74808
 Alpha virt. eigenvalues --    1.76545   1.77991   1.78392   1.79700   1.82134
 Alpha virt. eigenvalues --    1.83484   1.85084   1.85336   1.85681   1.88662
 Alpha virt. eigenvalues --    1.89551   1.90817   1.92441   1.94564   1.95152
 Alpha virt. eigenvalues --    1.96844   1.98265   1.99354   2.01050   2.02726
 Alpha virt. eigenvalues --    2.03276   2.04074   2.06218   2.07433   2.08203
 Alpha virt. eigenvalues --    2.08705   2.09883   2.11473   2.13216   2.14598
 Alpha virt. eigenvalues --    2.15253   2.17279   2.17836   2.21212   2.21678
 Alpha virt. eigenvalues --    2.22654   2.32205   2.33022   2.33173   2.33742
 Alpha virt. eigenvalues --    2.35018   2.37218   2.38407   2.39773   2.40266
 Alpha virt. eigenvalues --    2.40882   2.42013   2.42111   2.42556   2.43383
 Alpha virt. eigenvalues --    2.43450   2.44890   2.45196   2.47135   2.47448
 Alpha virt. eigenvalues --    2.48643   2.49339   2.50269   2.50715   2.51323
 Alpha virt. eigenvalues --    2.54717   2.55610   2.57066   2.59671   2.60434
 Alpha virt. eigenvalues --    2.62760   2.66649   2.68254   2.69866   2.71629
 Alpha virt. eigenvalues --    2.72948   2.73698   2.74383   2.76041   2.76852
 Alpha virt. eigenvalues --    2.79648   2.79966   2.81542   2.85524   2.87490
 Alpha virt. eigenvalues --    2.87813   2.88482   2.91823   2.92877   2.94576
 Alpha virt. eigenvalues --    2.94813   2.95191   2.98804   2.99634   3.00127
 Alpha virt. eigenvalues --    3.03688   3.05312   3.05563   3.06035   3.06875
 Alpha virt. eigenvalues --    3.07971   3.09110   3.10172   3.12385   3.13410
 Alpha virt. eigenvalues --    3.14160   3.15860   3.16095   3.18925   3.22480
 Alpha virt. eigenvalues --    3.23671   3.26869   3.31082   3.35844   3.40071
 Alpha virt. eigenvalues --    3.49431   3.62186   3.66941   3.67590   3.68243
 Alpha virt. eigenvalues --    3.68841   3.69292   3.70378   3.70852   3.71132
 Alpha virt. eigenvalues --    3.73289   3.77521   3.81671   3.87461   3.91142
 Alpha virt. eigenvalues --    3.93829   3.95364   3.97450   3.99005   4.04677
 Alpha virt. eigenvalues --    4.05180   4.06775   4.09015   4.10532   4.13242
 Alpha virt. eigenvalues --    4.20427   4.25584   4.95759   4.96797   5.01608
 Alpha virt. eigenvalues --    5.04707   5.06230   5.08000   5.13701   5.22531
 Alpha virt. eigenvalues --    5.28947   5.31350   5.33941   5.36909   5.48582
 Alpha virt. eigenvalues --    5.57221   5.59231   5.62642   5.63845   5.83981
 Alpha virt. eigenvalues --   23.69735  23.74491  23.76076  23.78280  23.80855
 Alpha virt. eigenvalues --   23.82534  23.88616  23.89101  23.89913  23.91126
 Alpha virt. eigenvalues --   23.91490  49.89735  49.91659  49.95202  49.97185
 Alpha virt. eigenvalues --   49.98535  50.01951
          Condensed to atoms (all electrons):
               1          2          3          4          5          6
     1  C   11.095724  -2.517730  -0.585796  -1.507134  -0.121492   0.428890
     2  C   -2.517730  17.169043  -9.758746   3.592977  -1.505585  -0.705818
     3  C   -0.585796  -9.758746  24.481111 -15.052155   8.476741  -3.859158
     4  C   -1.507134   3.592977 -15.052155  30.370024 -16.231420   6.875355
     5  C   -0.121492  -1.505585   8.476741 -16.231420  24.148982 -10.379155
     6  C    0.428890  -0.705818  -3.859158   6.875355 -10.379155  15.033222
     7  O   -0.226673   0.133138   0.030943   0.011996   0.045417   0.188500
     8  O    0.032028   0.074942   0.128422  -0.219977   0.103872  -0.047204
     9  O    0.070035   0.092782  -0.367031   0.266851  -0.368107   0.285562
    10  O   -0.047706  -0.040505   0.153443  -0.031134   0.042975  -0.036275
    11  H    0.375549   0.043417  -0.069365   0.009509   0.004193   0.001478
    12  H    0.359072  -0.061010   0.065773   0.005468  -0.006113  -0.000009
    13  H   -0.119675   0.194307   0.232261  -0.044189   0.034076  -0.007257
    14  H   -0.007279   0.001915   0.379338   0.019300   0.002820  -0.015753
    15  H    0.013563  -0.040152   0.108814   0.130893   0.116049  -0.007816
    16  H    0.010248   0.001602   0.000358   0.081280   0.216335   0.042744
    17  H   -0.025559  -0.020191   0.053668  -0.051055   0.150300   0.227314
    18  O    0.062363   0.005410   0.036588  -0.180746   0.138632   0.067044
    19  C    0.031167  -0.128991  -0.009703  -0.029698   0.009704  -0.009509
    20  H    0.010586  -0.019178  -0.003692   0.000574  -0.000934   0.001306
    21  H   -0.011174   0.007271   0.002555  -0.000323   0.000351   0.000228
    22  H    0.005145   0.023013  -0.002834  -0.000494   0.000347  -0.001002
    23  C    0.002558  -0.047790   0.080767  -0.235346  -0.030794   0.027022
    24  H    0.001221   0.009620   0.002144  -0.044688   0.026377  -0.012541
    25  H    0.000240  -0.005496  -0.001144   0.064314  -0.078198   0.018931
    26  H    0.000221   0.000653  -0.002511  -0.002125   0.034065   0.000800
    27  C   -0.048331  -0.251985   0.264391  -0.190497  -0.111264   0.056727
    28  H    0.006157   0.011800   0.043510  -0.038022  -0.041839  -0.001949
    29  H   -0.000922  -0.007033   0.008130  -0.059136   0.064425  -0.001416
    30  H    0.000081   0.000510   0.000455   0.030243   0.000356  -0.002346
    31  C   -0.343056   0.350907   0.231780  -0.871581   1.337740  -1.625489
    32  O    0.112409   0.262233  -0.142254  -0.121039  -0.147969   0.285943
    33  C   -0.284575  -0.555278   0.885186  -0.165875   0.241697  -0.588946
    34  H    0.001215   0.003823  -0.003599  -0.000945   0.000303   0.010082
    35  H    0.001449  -0.010035   0.004666  -0.000578  -0.000525  -0.007145
    36  H   -0.000657   0.002963  -0.004585  -0.001215   0.002650  -0.014351
               7          8          9         10         11         12
     1  C   -0.226673   0.032028   0.070035  -0.047706   0.375549   0.359072
     2  C    0.133138   0.074942   0.092782  -0.040505   0.043417  -0.061010
     3  C    0.030943   0.128422  -0.367031   0.153443  -0.069365   0.065773
     4  C    0.011996  -0.219977   0.266851  -0.031134   0.009509   0.005468
     5  C    0.045417   0.103872  -0.368107   0.042975   0.004193  -0.006113
     6  C    0.188500  -0.047204   0.285562  -0.036275   0.001478  -0.000009
     7  O    7.816813  -0.004530   0.059763   0.015647   0.019268  -0.022735
     8  O   -0.004530   7.913583   0.067115   0.003393   0.000030   0.000008
     9  O    0.059763   0.067115   7.954564  -0.024737   0.006331  -0.002959
    10  O    0.015647   0.003393  -0.024737   8.256834  -0.053185  -0.043093
    11  H    0.019268   0.000030   0.006331  -0.053185   0.526291  -0.043342
    12  H   -0.022735   0.000008  -0.002959  -0.043093  -0.043342   0.514481
    13  H   -0.025115  -0.001321   0.004144   0.007112  -0.004755  -0.001152
    14  H    0.007188  -0.011166  -0.062808  -0.002442   0.003854  -0.000107
    15  H    0.000156  -0.017126   0.013797  -0.000117  -0.000042   0.000001
    16  H    0.006744   0.005042   0.007598  -0.000079  -0.000002   0.000001
    17  H   -0.058689  -0.001395  -0.007204   0.000313   0.000011  -0.000060
    18  O    0.004829   0.018424   0.001179  -0.000257  -0.000163   0.000201
    19  C   -0.010024   0.000450  -0.002987   0.059319  -0.006564   0.002019
    20  H   -0.000782   0.000000  -0.000951  -0.060303  -0.003956   0.013448
    21  H    0.000152   0.000008   0.000720  -0.046101   0.010731  -0.003820
    22  H   -0.000121   0.000002  -0.000300  -0.056446  -0.000409  -0.000020
    23  C   -0.000684   0.001224   0.001143   0.000031   0.000020  -0.000107
    24  H    0.000307   0.000034  -0.000092  -0.000008  -0.000000   0.000002
    25  H    0.000307   0.000210   0.000057   0.000002   0.000000   0.000000
    26  H   -0.000364   0.000100   0.000009  -0.000001  -0.000000  -0.000001
    27  C    0.003418   0.125179  -0.008918   0.000976  -0.000255   0.000193
    28  H   -0.000058  -0.042193  -0.004568   0.000049   0.000025  -0.000000
    29  H   -0.000043  -0.030295   0.001489  -0.000009  -0.000004  -0.000000
    30  H    0.000009  -0.060255  -0.000015   0.000004  -0.000000   0.000000
    31  C   -0.019945   0.050765   0.332968   0.098463  -0.007298   0.005721
    32  O   -0.069762   0.037033  -0.112457   0.018216  -0.000127  -0.000091
    33  C   -0.039405  -0.164761  -0.472495  -0.100097  -0.007382   0.001984
    34  H    0.000140   0.000140  -0.007982   0.000483   0.000000  -0.000002
    35  H   -0.000369  -0.000003  -0.008697   0.000130   0.000008   0.000008
    36  H    0.000037  -0.000606   0.017022  -0.000282   0.000000   0.000000
              13         14         15         16         17         18
     1  C   -0.119675  -0.007279   0.013563   0.010248  -0.025559   0.062363
     2  C    0.194307   0.001915  -0.040152   0.001602  -0.020191   0.005410
     3  C    0.232261   0.379338   0.108814   0.000358   0.053668   0.036588
     4  C   -0.044189   0.019300   0.130893   0.081280  -0.051055  -0.180746
     5  C    0.034076   0.002820   0.116049   0.216335   0.150300   0.138632
     6  C   -0.007257  -0.015753  -0.007816   0.042744   0.227314   0.067044
     7  O   -0.025115   0.007188   0.000156   0.006744  -0.058689   0.004829
     8  O   -0.001321  -0.011166  -0.017126   0.005042  -0.001395   0.018424
     9  O    0.004144  -0.062808   0.013797   0.007598  -0.007204   0.001179
    10  O    0.007112  -0.002442  -0.000117  -0.000079   0.000313  -0.000257
    11  H   -0.004755   0.003854  -0.000042  -0.000002   0.000011  -0.000163
    12  H   -0.001152  -0.000107   0.000001   0.000001  -0.000060   0.000201
    13  H    0.451339  -0.001667   0.002071  -0.000382   0.000597  -0.004788
    14  H   -0.001667   0.427262  -0.008091   0.000023   0.000088  -0.001294
    15  H    0.002071  -0.008091   0.443174   0.000540  -0.000159   0.000201
    16  H   -0.000382   0.000023   0.000540   0.445473  -0.007120  -0.025302
    17  H    0.000597   0.000088  -0.000159  -0.007120   0.449933  -0.009658
    18  O   -0.004788  -0.001294   0.000201  -0.025302  -0.009658   7.877246
    19  C   -0.001686  -0.000234   0.000062  -0.000027  -0.000336  -0.000066
    20  H   -0.000018   0.000007  -0.000000  -0.000000  -0.000001  -0.000001
    21  H   -0.000034  -0.000014  -0.000000   0.000000   0.000000  -0.000001
    22  H    0.000004   0.000002   0.000000  -0.000000   0.000001  -0.000000
    23  C   -0.001651  -0.001027   0.003909  -0.008708  -0.007611   0.144902
    24  H    0.000010  -0.000000   0.000048  -0.003518   0.002294  -0.043716
    25  H    0.000013   0.000000   0.000016   0.013229  -0.000775  -0.031212
    26  H   -0.000059  -0.000001  -0.000134   0.000102  -0.000251  -0.056731
    27  C    0.004061  -0.001623  -0.004428  -0.000411  -0.000290   0.001326
    28  H   -0.000034   0.001327  -0.003290   0.000124   0.000005   0.000087
    29  H    0.000038  -0.000797   0.012946  -0.000083  -0.000002  -0.000148
    30  H    0.000002  -0.000172   0.000045  -0.000137   0.000000   0.000108
    31  C    0.014017   0.020318  -0.010103  -0.031971   0.069513  -0.038287
    32  O   -0.005378  -0.003377   0.001574   0.018415  -0.070552   0.021179
    33  C    0.006682   0.009883  -0.007150  -0.029313   0.033651  -0.006604
    34  H   -0.000003   0.000079  -0.000004   0.000022  -0.000005  -0.000014
    35  H    0.000005   0.000014   0.000001  -0.000003   0.000020   0.000010
    36  H   -0.000001   0.000013  -0.000004   0.000027   0.000054   0.000016
              19         20         21         22         23         24
     1  C    0.031167   0.010586  -0.011174   0.005145   0.002558   0.001221
     2  C   -0.128991  -0.019178   0.007271   0.023013  -0.047790   0.009620
     3  C   -0.009703  -0.003692   0.002555  -0.002834   0.080767   0.002144
     4  C   -0.029698   0.000574  -0.000323  -0.000494  -0.235346  -0.044688
     5  C    0.009704  -0.000934   0.000351   0.000347  -0.030794   0.026377
     6  C   -0.009509   0.001306   0.000228  -0.001002   0.027022  -0.012541
     7  O   -0.010024  -0.000782   0.000152  -0.000121  -0.000684   0.000307
     8  O    0.000450   0.000000   0.000008   0.000002   0.001224   0.000034
     9  O   -0.002987  -0.000951   0.000720  -0.000300   0.001143  -0.000092
    10  O    0.059319  -0.060303  -0.046101  -0.056446   0.000031  -0.000008
    11  H   -0.006564  -0.003956   0.010731  -0.000409   0.000020  -0.000000
    12  H    0.002019   0.013448  -0.003820  -0.000020  -0.000107   0.000002
    13  H   -0.001686  -0.000018  -0.000034   0.000004  -0.001651   0.000010
    14  H   -0.000234   0.000007  -0.000014   0.000002  -0.001027  -0.000000
    15  H    0.000062  -0.000000  -0.000000   0.000000   0.003909   0.000048
    16  H   -0.000027  -0.000000   0.000000  -0.000000  -0.008708  -0.003518
    17  H   -0.000336  -0.000001   0.000000   0.000001  -0.007611   0.002294
[...]
 3709,0.00056802,-0.00095514,0.00030012,-0.00001375,-0.00024545,0.00029
 626,0.00001141,0.00007291,0.00032769,0.00012069,0.00009795,-0.00081244
 ,-0.00041389,-0.00047556,-0.00039501,-0.00005505,0.00005931,-0.0000703
 4,0.00011180,-0.00009337,0.00008788,-0.00011448,-0.00260829,0.00125971
 ,-0.00193168,-0.00025690,-0.00096745,-0.00122743,0.00024157,-0.0006002
 2,0.00021757,0.00034381,-0.00038002,0.00006295,-0.15251181,0.09195133,
 0.74668052,0.00024337,-0.00133191,0.00102666,-0.00039990,-0.00603304,-
 0.01186520,-0.00502146,0.00009555,0.00281644,-0.00130335,0.00074470,0.
 00001472,0.00333259,-0.00088026,-0.00066896,-0.02837962,0.01071141,-0.
 00070432,-0.05923191,-0.01912354,0.03157105,0.00062523,-0.00033441,-0.
 00292193,0.03076212,0.01046966,0.00585926,0.00032118,0.00143267,-0.000
 04197,-0.00016614,0.00058418,0.00008104,0.00059686,-0.00005705,-0.0001
 5765,0.00037289,0.00067477,0.00270257,0.00070541,0.00044476,-0.0001245
 3,-0.00003885,0.00057270,0.00021993,0.00091461,-0.00101413,0.00062053,
 -0.00625948,-0.01640289,0.00594493,0.00174137,0.00156010,-0.00131837,0
 .00055832,-0.00038871,0.00007264,0.00005932,-0.00004015,0.00000074,-0.
 00010366,0.00005517,0.00004609,-0.00009313,0.00014379,-0.00006437,-0.0
 0034637,-0.00008829,-0.00032740,0.00019768,0.00023951,0.00033740,0.000
 11243,-0.00000957,0.00001767,0.00003262,0.00003829,0.00014069,0.000634
 27,0.00094709,0.00006779,-0.00015829,-0.00016808,-0.00002539,-0.000224
 12,-0.00006066,-0.00037378,0.00007650,-0.00009253,0.00006926,-0.096090
 02,-0.06426487,0.00512169,0.15265927,-0.00006778,-0.00226330,0.0023082
 4,-0.00055001,-0.00357677,-0.01525024,-0.00714048,-0.01130244,0.016006
 79,0.00156714,-0.00036364,-0.00638830,-0.02734156,-0.02612994,-0.00223
 144,0.04331242,-0.05180937,-0.00944768,-0.03790864,0.02176336,0.022073
 39,0.00238738,0.00283744,0.00271886,0.00936761,-0.00405817,-0.07112483
 ,0.00175129,0.00166348,-0.00002160,-0.00039265,0.00094049,-0.00002103,
 0.00092314,-0.00015184,-0.00018493,0.00185240,0.00060780,0.00275749,0.
 00087071,0.00236609,-0.00077148,-0.00123023,0.00146129,0.00053497,-0.0
 0014563,0.00080728,-0.00005519,-0.01752824,-0.02803605,0.01092484,0.00
 313431,-0.01001681,0.01016227,-0.00001831,0.00029398,0.00004377,0.0003
 2309,-0.00005735,0.00005231,-0.00004388,-0.00002377,-0.00003806,-0.000
 19851,0.00020418,-0.00010154,0.00052374,0.00378345,0.00327296,0.000419
 84,0.00089202,-0.00045658,0.00008707,-0.00020344,-0.00040443,0.0000169
 2,-0.00040398,-0.00006496,0.00037769,-0.00208233,-0.00104018,-0.000264
 77,0.00068678,0.00078025,-0.00007880,0.00052055,0.00022431,0.00015721,
 0.00008305,0.00021870,-0.06553557,-0.34107454,-0.12830691,0.11064559,0
 .49584306,-0.00054591,-0.00011089,0.00065887,-0.00127745,0.00147310,-0
 .00436714,-0.00632830,-0.00737120,0.01102137,0.00261459,-0.00115379,0.
 00049399,0.01080708,0.02121837,-0.00552661,0.01539360,0.00536238,-0.08
 214740,0.01570392,0.01157281,0.00374220,-0.00137715,0.00006857,-0.0014
 8528,0.00798637,-0.06113629,-0.06151994,0.00156242,-0.00055339,0.00067
 817,-0.00019458,0.00015508,0.00005466,0.00030082,-0.00003379,0.0000230
 8,0.00065968,0.00010557,0.00047773,0.00020558,0.00090501,-0.00000973,-
 0.00025894,0.00085880,0.00114130,-0.00096106,0.00033388,0.00024585,-0.
 01172013,-0.02020212,0.00926946,-0.00150781,0.00416144,-0.00086096,-0.
 00043450,0.00076447,-0.00010258,0.00027798,-0.00006362,-0.00000380,0.0
 0004801,-0.00006043,-0.00000780,-0.00004823,-0.00007882,-0.00004851,-0
 .00089761,-0.00109153,-0.00185625,0.00055867,0.00006093,0.00053281,-0.
 00006749,0.00028253,0.00011074,0.00016209,0.00023480,0.00050134,0.0005
 9665,0.00012311,-0.00008565,0.00005394,0.00025996,0.00031050,-0.000218
 69,0.00007673,-0.00015237,-0.00007995,0.00009751,-0.00002185,-0.004722
 16,-0.14740162,-0.20461851,-0.02682798,0.18606680,0.32180569,0.0000912
 6,0.00008084,0.00001547,0.00037997,0.00087239,0.00003700,0.00572188,0.
 00037970,0.00098582,-0.00076059,-0.00116816,0.00103834,-0.00098867,-0.
 00075538,-0.00011196,0.00471692,-0.00179436,0.00314696,0.00112386,0.00
 051192,-0.00137256,0.00021128,0.00042496,-0.00037972,-0.00053969,-0.01
 542637,0.01530308,0.00006213,-0.00029599,0.00001373,0.00000381,-0.0000
 2539,-0.00000310,-0.00000309,-0.00003160,-0.00001029,0.00003616,0.0000
 2149,0.00007265,-0.00012587,-0.00044739,0.00024031,0.00033267,-0.00014
 844,-0.00018961,0.00000038,-0.00000972,-0.00009051,0.00020800,0.000546
 19,-0.00026089,0.00004583,-0.00042858,0.00042473,0.00003530,0.00007503
 ,0.00002589,0.00001706,-0.00001814,-0.00000135,0.00000878,0.00000099,-
 0.00000827,0.00001977,-0.00001489,0.00001446,0.00004710,0.00013816,0.0
 0010791,-0.00001558,0.00002102,-0.00005580,-0.00000145,-0.00001180,-0.
 00000962,-0.00000575,-0.00001146,-0.00001549,0.00015029,0.00003861,0.0
 0021042,-0.00005044,0.00000472,-0.00000003,-0.00002955,0.00000836,-0.0
 0005519,0.00003335,-0.00001654,0.00003378,-0.12393081,-0.06012869,0.03
 500327,0.00444489,-0.01387917,0.00132702,0.55443884,0.00011619,-0.0003
 2359,0.00022404,-0.00004488,-0.00088716,-0.00112875,-0.00117333,0.0021
 5448,-0.00412289,0.00005648,0.00006577,-0.00069622,-0.00064679,0.00017
 252,-0.00046721,0.00672746,0.00657137,-0.00433304,-0.00325123,0.000639
 49,0.00236006,0.00010451,0.00020112,0.00035215,-0.00381988,0.00845278,
 0.00709504,-0.00019674,0.00063676,-0.00024125,-0.00002687,0.00010506,0
 .00000886,0.00004216,0.00005834,-0.00004493,-0.00005652,-0.00003396,0.
 00019577,0.00029967,0.00052505,-0.00029885,-0.00013223,0.00007056,0.00
 012200,-0.00002075,0.00003009,0.00005736,-0.00036189,-0.00082619,0.000
 41263,-0.00003480,-0.00085351,0.00038369,0.00018098,-0.00031203,0.0000
 3485,-0.00004103,0.00002105,0.00000166,-0.00003396,0.00003046,0.000009
 88,-0.00004566,0.00006127,-0.00001427,-0.00002401,0.00034444,0.0002447
 0,0.00004709,0.00002761,-0.00001930,0.00002267,-0.00000714,-0.00003494
 ,-0.00000368,-0.00003420,0.00001083,-0.00014964,-0.00000547,-0.0002108
 8,0.00001761,0.00000527,-0.00007909,0.00001729,-0.00004721,0.00003390,
 0.00000077,0.00001005,-0.00000140,-0.05445379,-0.17058775,0.05304085,-
 0.02353322,-0.04777015,0.00214221,0.00473618,0.53328208,-0.00017508,0.
 00015002,0.00010787,0.00012184,0.00077644,-0.00186589,-0.00072200,-0.0
 0537823,0.00251715,0.00102472,-0.00024961,-0.00061127,-0.00168624,-0.0
 0072259,-0.00077726,0.00621677,-0.00318704,-0.00041526,-0.00088417,0.0
 0129212,0.00090232,-0.00047677,-0.00008355,-0.00010597,0.02531866,0.03
 167920,-0.03841221,0.00032487,-0.00034254,0.00017150,-0.00006107,0.000
 04322,0.00003405,0.00010356,-0.00009081,0.00003362,0.00047536,0.000022
 12,0.00038854,0.00041986,0.00082171,-0.00048022,-0.00024316,0.00030352
 ,0.00014327,0.00006833,0.00005822,0.00005458,-0.00032178,-0.00047626,0
 .00019954,0.00015490,-0.00047022,0.00083612,-0.00024707,0.00027753,-0.
 00001641,0.00007816,-0.00000598,-0.00000758,0.00003336,-0.00001946,-0.
 00001443,-0.00002204,-0.00002348,-0.00000312,0.00000268,0.00006761,0.0
 0005109,0.00003327,0.00005846,-0.00001491,-0.00000675,-0.00000506,0.00
 000010,0.00001305,-0.00000372,0.00000183,0.00022254,0.00006790,0.00030
 533,0.00008970,0.00005341,-0.00001461,-0.00000566,-0.00001625,-0.00004
 357,-0.00005556,0.00006185,0.00000925,0.02917915,0.05054580,-0.1045289
 8,-0.01062381,-0.02157570,0.01253016,-0.00813190,0.05738568,0.58983828
 ,-0.00000661,-0.00013582,0.00007477,0.00007622,0.00004633,-0.00028928,
 0.00009418,-0.00008492,0.00031138,0.00014609,-0.00004514,-0.00007074,-
 0.00024398,-0.00004874,-0.00009867,0.00136592,0.00032041,-0.00017316,-
 0.00020515,0.00012232,0.00018621,-0.00012583,0.00002893,0.00001880,0.0
 0051075,0.00039623,0.00075565,0.00004785,0.00019591,0.00000023,-0.0000
 1088,0.00001190,0.00000207,0.00001982,0.00002789,-0.00001057,0.0000367
 2,0.00000815,0.00004114,0.00002463,-0.00001936,0.00001540,-0.00002604,
 0.00001756,0.00000784,-0.00000647,0.00002283,0.00000286,-0.00003824,-0
 .00005080,0.00003788,-0.00001839,-0.00015347,0.00012226,-0.00001960,-0
 .00004920,0.00001617,0.00001494,0.00002606,0.00000113,-0.00001841,0.00
 000009,0.00000630,-0.00003200,0.00001262,-0.00003786,0.00000831,0.0000
 5443,0.00004154,0.00000163,0.00000605,-0.00001034,0.00000072,-0.000002
 36,-0.00000337,0.00000102,-0.00000645,-0.00000253,0.00006948,-0.000038
 36,-0.00000292,0.00004126,-0.00000338,0.00001631,-0.00002884,-0.000011
 91,0.00000085,-0.00004166,0.00005783,-0.00001714,-0.00838153,-0.002688
 60,-0.01241789,-0.00038240,-0.00295369,0.00072779,-0.11379436,-0.07952
 542,-0.08910674,0.11855541,-0.00001707,0.00004047,0.00004342,0.0000445
 7,0.00012362,-0.00051684,0.00034504,-0.00052659,0.00080073,-0.00029274
 ,-0.00023718,-0.00011709,-0.00042664,-0.00016339,-0.00024243,0.0018342
 1,0.00029299,-0.00051679,-0.00060448,0.00032916,0.00042480,0.00022426,
 0.00039144,-0.00013678,0.00195074,0.00144447,-0.00195899,0.00007545,-0
 .00010460,0.00000252,-0.00001149,0.00001926,0.00000189,0.00002497,-0.0
 0002336,0.00000814,0.00009630,0.00002081,0.00009078,-0.00000311,0.0000
 3487,-0.00000214,0.00003473,0.00004638,-0.00000838,0.00001824,-0.00001
 007,0.00000392,-0.00009858,-0.00021257,0.00008460,0.00008317,-0.000144
 27,0.00023104,-0.00005191,0.00010106,-0.00000670,0.00000759,-0.0000166
 4,0.00000329,0.00001382,-0.00000305,-0.00001219,0.00000923,0.00000061,
 0.00002332,-0.00001084,0.00003489,0.00001669,0.00001329,0.00001699,-0.
 00000042,0.00000045,-0.00000414,-0.00000366,0.00000315,-0.00000123,0.0
 0000213,0.00007361,-0.00010701,0.00010520,-0.00005468,0.00001680,0.000
 12981,0.00002207,0.00008783,-0.00001137,0.00006243,-0.00004083,0.00004
 850,-0.01259975,-0.01626631,-0.01920253,-0.00408387,-0.00531609,0.0024
 4468,-0.07776846,-0.12717922,-0.10428421,0.08568241,0.14034968,-0.0000
 2112,0.00002599,-0.00000304,-0.00006681,0.00006391,0.00005514,0.000020
 43,-0.00007898,0.00028210,0.00015552,0.00007570,0.00000916,0.00025586,
 0.00003096,0.00013594,-0.00123285,0.00023456,0.00024634,0.00019070,-0.
 00019581,-0.00017610,-0.00014236,-0.00018779,-0.00012647,0.00034825,0.
 00101401,-0.00068662,0.00002940,-0.00006602,-0.00000042,0.00000933,-0.
 00001070,-0.00000887,-0.00000390,-0.00000146,-0.00000356,0.00003671,0.
 00001071,-0.00001611,-0.00000558,-0.00000092,-0.00001779,-0.00001175,0
 .00000304,0.00000505,0.00000088,-0.00000062,0.00000241,0.00007087,0.00
 013197,-0.00006000,-0.00001726,0.00018363,-0.00014970,-0.00001537,0.00
 003154,-0.00000027,0.00000820,-0.00000188,-0.00000454,0.00000962,-0.00
 000354,-0.00000263,-0.00000277,-0.00000983,-0.00000033,-0.00000061,-0.
 00006382,-0.00004294,-0.00000512,-0.00000867,0.00000537,-0.00000344,0.
 00000295,0.00000556,0.00000004,0.00000443,-0.00000036,-0.00002031,0.00
 020961,0.00021937,0.00008804,-0.00004122,-0.00008338,0.00001088,-0.000
 07398,-0.00002692,-0.00002487,0.00001026,0.00000112,0.00935233,0.00698
 574,0.01201917,0.00145312,0.00490281,-0.00037549,-0.09436346,-0.109663
 41,-0.18288612,0.10096773,0.11294557,0.19134421,0.00009636,-0.00037164
 ,0.00016543,0.00004058,-0.00030618,0.00005503,-0.00038947,0.00067752,-
 0.00077458,-0.00025017,0.00006203,-0.00007323,0.00002739,0.00022266,-0
 .00002907,0.00037037,0.00106097,-0.00091238,-0.00064868,0.00010325,0.0
 0037326,0.00019265,0.00006001,0.00010977,-0.00195894,-0.00005110,0.002
 86933,0.00004404,0.00043031,-0.00037465,0.00001918,0.00005682,-0.00005
 717,0.00000752,0.00007230,-0.00003345,-0.00009362,-0.00001031,-0.00002
 715,-0.00000811,-0.00000954,0.00002342,0.00003974,-0.00003327,0.000002
 84,-0.00002860,-0.00000307,-0.00000682,-0.00007914,-0.00017062,0.00008
 226,-0.00004476,-0.00015877,0.00001207,-0.00004310,-0.00011292,0.00005
 262,-0.00001523,0.00000992,0.00000647,0.00001432,0.00003544,-0.0000482
 0,-0.00004588,0.00010554,0.00003761,-0.00001077,0.00007006,0.00004698,
 0.00000978,-0.00000551,-0.00000404,0.00000376,-0.00000149,-0.00000778,
 -0.00000029,-0.00000896,0.00000236,-0.00011279,-0.00002654,-0.00010231
 ,-0.00001768,-0.00001702,0.00001805,0.00002005,0.00001044,0.00001649,0
 .00003401,-0.00002576,0.00002258,0.01429045,-0.00661435,0.00505747,-0.
 00146143,-0.00248771,-0.00067204,-0.18036103,0.10698378,-0.07859856,-0
 .01026898,0.00929389,-0.00452156,0.19328386,-0.00004506,-0.00014767,0.
 00005251,-0.00008430,-0.00017923,0.00004746,-0.00101129,-0.00023709,0.
 00009542,0.00000141,0.00020851,-0.00017528,0.00016391,0.00014379,-0.00
 001475,-0.00069279,0.00036640,-0.00086360,-0.00050172,0.00006191,0.000
 32204,0.00000998,0.00001921,-0.00001179,-0.00027041,0.00056491,-0.0016
 9792,0.00017801,-0.00004123,-0.00017879,0.00000921,0.00002966,-0.00003
 956,0.00000464,0.00002356,0.00001015,-0.00000236,0.00000924,-0.0000182
 4,-0.00000388,0.00004837,-0.00001322,-0.00003754,0.00002805,0.00001526
 ,-0.00000048,-0.00000157,0.00001387,-0.00007705,-0.00021916,0.00009161
 ,0.00000194,0.00009176,-0.00007016,-0.00013092,0.00024499,-0.00006172,
 0.00000736,-0.00002924,0.00001478,0.00003385,-0.00003470,-0.00001946,0
 .00001945,0.00000076,0.00002573,-0.00001374,-0.00003474,-0.00002888,0.
 00000111,-0.00000650,0.00001066,-0.00000019,0.00000150,0.00000443,0.00
 000176,0.00000367,0.00000271,-0.00001570,-0.00000507,0.00001210,-0.000
 00218,-0.00000616,0.00003461,0.00001333,0.00001730,0.00000396,0.000012
 24,-0.00001400,0.00000902,0.02131390,-0.02009820,0.01232697,-0.0025613
 3,0.00008596,0.00047168,0.11022710,-0.12769390,0.06535397,-0.01300169,
 0.01152049,-0.00758220,-0.11869647,0.14052117,-0.00001619,0.00035658,-
 0.00011524,-0.00002820,0.00020923,-0.00027667,0.00124915,-0.00005907,0
 .00012502,-0.00005818,-0.00022944,0.00010290,-0.00004936,-0.00000849,-
 0.00006491,0.00033186,0.00049832,-0.00005246,-0.00011034,-0.00008392,0
 .00000553,0.00004641,0.00005764,0.00001934,0.00178644,0.00054970,-0.00
 005533,-0.00027552,-0.00031946,0.00017421,-0.00001216,-0.00003803,0.00
 004853,-0.00002821,-0.00007788,0.00002474,0.00007786,0.00001269,0.0000
 4565,-0.00000571,0.00000712,-0.00001343,0.00003055,-0.00001963,-0.0000
 1019,-0.00000602,0.00001009,0.00000126,0.00000997,-0.00002875,0.000008
 83,-0.00001688,-0.00009569,0.00003249,0.00019361,-0.00007366,0.0000013
 6,-0.00005815,-0.00003752,0.00000561,-0.00002370,0.00001329,0.00001336
 ,0.00009069,-0.00004153,0.00003970,0.00001008,0.00004707,0.00004212,-0
 .00000161,0.00000340,-0.00000527,0.00000374,-0.00000157,-0.00000459,-0
 .00000182,-0.00000377,-0.00000083,0.00000036,-0.00003344,0.00001605,-0
 .00001710,-0.00000215,0.00003673,-0.00000014,0.00001621,0.00000431,0.0
 0001312,-0.00000739,-0.00000163,-0.01150103,0.01027757,-0.00987080,-0.
 00014635,-0.00241990,-0.00054613,-0.08075991,0.06489578,-0.08337318,-0
 .01346279,0.01281766,-0.00835779,0.08659077,-0.07190629,0.09131563,0.0
 0000739,0.00005431,-0.00004614,0.00002157,0.00011581,0.00014266,0.0009
 4603,0.00061160,-0.00016927,-0.00012159,-0.00005934,0.00023713,0.00014
 818,0.00000327,0.00009824,-0.00045716,-0.00038065,0.00020041,0.0003391
 8,-0.00006847,-0.00031416,-0.00004560,0.00000023,-0.00002798,-0.000620
 00,-0.00218099,0.00189549,-0.00009940,-0.00000516,0.00001300,0.0000070
 0,-0.00002219,0.00000685,-0.00002362,0.00000083,0.00000556,-0.00000058
 ,0.00000917,-0.00004312,-0.00005091,-0.00015262,0.00007593,0.00005391,
 -0.00005373,-0.00004368,-0.00000625,-0.00000144,-0.00001283,0.00002295
 ,0.00001542,-0.00001842,-0.00003801,0.00003122,-0.00007882,0.00005437,
 -0.00005817,0.00000968,-0.00002043,0.00000134,0.00000245,-0.00001335,0
 .00000591,0.00000345,0.00001425,-0.00000343,-0.00000183,0.00001869,0.0
 0000105,0.00000536,-0.00001282,-0.00000527,-0.00000557,-0.00000054,-0.
 00000135,0.00000211,-0.00000164,0.00000073,-0.00000341,0.00002609,-0.0
 0002909,-0.00005199,-0.00002100,0.00000010,0.00002034,-0.00001522,0.00
 000569,0.00000094,-0.00000241,-0.00000119,-0.00001795,-0.00996500,0.00
 904575,0.00711463,0.00126920,0.00004812,-0.00084626,-0.15152267,0.0482
 2347,0.12748758,0.01263443,-0.00389001,-0.01254876,-0.01265537,0.00514
 991,0.01614478,0.16013033,0.00004020,-0.00011304,0.00000005,0.00008471
 ,-0.00003353,0.00033785,0.00061423,0.00070068,0.00033724,-0.00041998,-
 0.00006229,0.00025201,0.00003311,-0.00000920,0.00012960,-0.00042208,-0
 .00003758,0.00035969,0.00031720,-0.00013774,-0.00036634,0.00019267,0.0
 0007676,-0.00015475,-0.00266049,-0.00544165,0.00486133,-0.00002306,0.0
 0014384,-0.00004646,0.00001235,-0.00000351,-0.00001423,-0.00001291,0.0
 0002872,-0.00000836,-0.00009603,0.00000217,-0.00006503,-0.00011855,-0.
 00029579,0.00017336,0.00010759,-0.00008202,-0.00006765,0.00000669,-0.0
 0005079,-0.00001425,0.00001380,0.00007402,-0.00005054,0.00004187,0.000
 02545,-0.00008642,-0.00001317,-0.00005406,0.00001988,-0.00000038,0.000
 01828,-0.00000096,-0.00000689,0.00000626,-0.00000196,-0.00002872,0.000
 02251,-0.00001216,-0.00000886,0.00001474,0.00000412,-0.00001210,-0.000
 00553,-0.00000352,0.00000561,-0.00000872,0.00000223,0.00000025,-0.0000
 0009,-0.00000539,0.00001316,0.00000838,-0.00002501,-0.00002057,-0.0000
 2055,0.00000597,-0.00000730,0.00001087,-0.00001329,0.00001479,-0.00000
 101,0.00001247,-0.01827541,0.01140800,0.01987197,0.00110858,-0.0002002
 6,0.00001708,0.05429286,-0.07690414,-0.07208407,0.01178136,-0.00451523
 ,-0.00887655,0.00985630,-0.00524275,-0.01428478,-0.05641083,0.08067878
 ,-0.00001603,0.00002477,0.00000670,0.00002596,0.00007716,-0.00046083,0
 .00034819,-0.00042030,0.00030155,0.00022792,0.00002660,-0.00009962,-0.
 00000212,0.00004936,-0.00011114,0.00065885,0.00117178,-0.00038045,-0.0
 0069505,-0.00001619,0.00045672,-0.00015963,-0.00007513,0.00025713,0.00
 194412,0.00295369,-0.00065376,-0.00007321,0.00003630,0.00002392,-0.000
 00522,0.00000629,0.00001379,0.00000126,-0.00000389,0.00000136,0.000079
 22,0.00001115,0.00007525,0.00004033,0.00007370,-0.00004225,-0.00007196
 ,-0.00000268,0.00003486,-0.00000597,0.00003318,0.00002425,-0.00002827,
 -0.00008761,0.00004236,-0.00006254,-0.00016428,0.00003586,0.00006088,-
 0.00005907,0.00000150,-0.00001338,-0.00000213,0.00000068,-0.00001251,0
 .00000456,0.00000824,0.00001138,-0.00000383,-0.00000422,0.00001028,0.0
 0007146,0.00006331,0.00000105,0.00000346,-0.00000654,0.00000547,0.0000
 0079,-0.00000516,-0.00000187,-0.00000797,-0.00000023,-0.00002379,-0.00
 009509,-0.00013147,0.00000247,0.00001884,0.00002737,-0.00001410,0.0000
 0058,0.00003604,-0.00002062,0.00002056,-0.00003302,0.00815086,-0.00319
 842,-0.01341228,-0.00199227,-0.00314380,0.00013806,0.12781884,-0.06765
 548,-0.19455363,0.01234971,-0.00320817,-0.01130149,-0.00930182,0.00376
 293,0.01068508,-0.13923638,0.06979688,0.20896207\\-0.00000326,-0.00000
 054,-0.00000111,0.00000582,0.00000664,-0.00000063,-0.00000028,-0.00000
 408,-0.00000296,-0.00000311,0.00000203,-0.00000103,-0.00000843,-0.0000
 0012,0.00000107,0.00000436,0.00000117,0.00000173,-0.00000370,-0.000006
 26,0.00000187,-0.00000008,-0.00000191,0.00000141,0.00000560,-0.0000018
 7,-0.00000952,0.00000478,0.00000263,-0.00000142,0.00000253,0.00000478,
 -0.00000281,0.00000120,0.00000370,0.00000034,-0.00000127,0.00000263,0.
 00000140,0.00000021,0.00000183,-0.00000097,-0.00000083,0.00000225,0.00
 000165,-0.00000147,-0.00000230,0.00000348,-0.00000276,-0.00000184,0.00
 000259,0.00000226,0.00000036,0.00000643,-0.00000280,0.00000443,-0.0000
 0482,0.00000358,0.00000223,-0.00000282,0.00000387,0.00000372,-0.000005
 42,0.00000313,0.00000007,-0.00000468,-0.00000520,-0.00000312,0.0000028
 6,-0.00000256,-0.00000151,0.00000706,-0.00000421,-0.00000147,0.0000073
 6,-0.00000409,0.00000121,0.00000641,0.00000191,0.00000140,0.00000387,0
 .00000174,0.00000023,-0.00000283,-0.00000009,0.00000167,-0.00000198,-0
 .00000063,0.00000027,-0.00000132,-0.00000158,0.00000032,0.00000414,-0.
 00000227,-0.00000183,0.00000653,0.00000190,-0.00000420,-0.00000467,0.0
 0000201,-0.00000332,-0.00000482,0.00000280,-0.00000426,-0.00000392,0.0
 0000092,-0.00000495,-0.00000251\\\@


 REVOLUTIONS HAVE NEVER LIGHTENED THE BURDEN OF TYRANNY:
 THEY HAVE MERELY SHIFTED IT TO OTHER SHOULDERS.
                                   -- G. B. SHAW (1903)
 Job cpu time:       0 days  6 hours 37 minutes 59.3 seconds.
 File lengths (MBytes):  RWF=    766 Int=      0 D2E=      0 Chk=     19 Scr=      1
 Normal termination of Gaussian 09 at Sun Jan  8 02:54:51 2017.
