 Entering Gaussian System, Link 0=g09
 Initial command:
 /share/apps//g09/l1.exe "/scratch/Gau-44584.inp" -scrdir="/scratch/"
 Entering Link 1 = /share/apps//g09/l1.exe PID=     44585.
  
 Copyright (c) 1988,1990,1992,1993,1995,1998,2003,2009,2013,
            Gaussian, Inc.  All Rights Reserved.
  
 This is part of the Gaussian(R) 09 program.  It is based on
 the Gaussian(R) 03 system (copyright 2003, Gaussian, Inc.),
 the Gaussian(R) 98 system (copyright 1998, Gaussian, Inc.),
 the Gaussian(R) 94 system (copyright 1995, Gaussian, Inc.),
 the Gaussian 92(TM) system (copyright 1992, Gaussian, Inc.),
 the Gaussian 90(TM) system (copyright 1990, Gaussian, Inc.),
 the Gaussian 88(TM) system (copyright 1988, Gaussian, Inc.),
 the Gaussian 86(TM) system (copyright 1986, Carnegie Mellon
 University), and the Gaussian 82(TM) system (copyright 1983,
 Carnegie Mellon University). Gaussian is a federally registered
 trademark of Gaussian, Inc.
  
 This software contains proprietary and confidential information,
 including trade secrets, belonging to Gaussian, Inc.
  
 This software is provided under written license and may be
 used, copied, transmitted, or stored only in accord with that
 written license.
  
 The following legend is applicable only to US Government
 contracts under FAR:
  
                    RESTRICTED RIGHTS LEGEND
  
 Use, reproduction and disclosure by the US Government is
 subject to restrictions as set forth in subparagraphs (a)
 and (c) of the Commercial Computer Software - Restricted
 Rights clause in FAR 52.227-19.
  
 Gaussian, Inc.
 340 Quinnipiac St., Bldg. 40, Wallingford CT 06492
  
  
 ---------------------------------------------------------------
 Warning -- This program may not be used in any manner that
 competes with the business of Gaussian, Inc. or will provide
 assistance to any competitor of Gaussian, Inc.  The licensee
 of this program is prohibited from giving any competitor of
 Gaussian, Inc. access to this program.  By using this program,
 the user acknowledges that Gaussian, Inc. is engaged in the
 business of creating and licensing software in the field of
 computational chemistry and represents and warrants to the
 licensee that it is not a competitor of Gaussian, Inc. and that
 it will not use this program in any manner prohibited above.
 ---------------------------------------------------------------
  

 Cite this work as:
 Gaussian 09, Revision D.01,
 M. J. Frisch, G. W. Trucks, H. B. Schlegel, G. E. Scuseria, 
 M. A. Robb, J. R. Cheeseman, G. Scalmani, V. Barone, B. Mennucci, 
 G. A. Petersson, H. Nakatsuji, M. Caricato, X. Li, H. P. Hratchian, 
 A. F. Izmaylov, J. Bloino, G. Zheng, J. L. Sonnenberg, M. Hada, 
 M. Ehara, K. Toyota, R. Fukuda, J. Hasegawa, M. Ishida, T. Nakajima, 
 Y. Honda, O. Kitao, H. Nakai, T. Vreven, J. A. Montgomery, Jr., 
 J. E. Peralta, F. Ogliaro, M. Bearpark, J. J. Heyd, E. Brothers, 
 K. N. Kudin, V. N. Staroverov, T. Keith, R. Kobayashi, J. Normand, 
 K. Raghavachari, A. Rendell, J. C. Burant, S. S. Iyengar, J. Tomasi, 
 M. Cossi, N. Rega, J. M. Millam, M. Klene, J. E. Knox, J. B. Cross, 
 V. Bakken, C. Adamo, J. Jaramillo, R. Gomperts, R. E. Stratmann, 
 O. Yazyev, A. J. Austin, R. Cammi, C. Pomelli, J. W. Ochterski, 
 R. L. Martin, K. Morokuma, V. G. Zakrzewski, G. A. Voth, 
 P. Salvador, J. J. Dannenberg, S. Dapprich, A. D. Daniels, 
 O. Farkas, J. B. Foresman, J. V. Ortiz, J. Cioslowski, 
 and D. J. Fox, Gaussian, Inc., Wallingford CT, 2013.
 
 ******************************************
 Gaussian 09:  EM64L-G09RevD.01 24-Apr-2013
                 9-Jan-2017 
 ******************************************
 %nproc=20
 Will use up to   20 processors via shared memory.
 %mem=100GB
 %chk=Ac-4_cGalMe.chk
 -------------------------------------------------------------------
 #P PBE1PBE/6-311+G(d,p) opt optcyc=999 freq EmpiricalDispersion=GD3
 -------------------------------------------------------------------
 1/6=999,14=-1,18=20,19=15,26=3,38=1/1,3;
 2/9=110,12=2,17=6,18=5,40=1/2;
 3/5=4,6=6,7=111,11=2,16=1,25=1,30=1,71=1,74=-13,124=31/1,2,3;
 4//1;
 5/5=2,38=5/2;
 6/7=2,8=2,9=2,10=2,28=1/1;
 7//1,2,3,16;
 1/6=999,14=-1,18=20,19=15,26=3/3(2);
 2/9=110/2;
 99//99;
 2/9=110/2;
 3/5=4,6=6,7=111,11=2,16=1,25=1,30=1,71=1,74=-13,124=31/1,2,3;
 4/5=5,16=3,69=1/1;
 5/5=2,38=5/2;
 7//1,2,3,16;
 1/6=999,14=-1,18=20,19=15,26=3/3(-5);
 2/9=110/2;
 6/7=2,8=2,9=2,10=2,19=2,28=1/1;
 99/9=1/99;
 Leave Link    1 at Mon Jan  9 11:07:16 2017, MaxMem= 13421772800 cpu:         1.7
 (Enter /share/apps//g09/l101.exe)
 -------
 disacch
 -------
 Symbolic Z-matrix:
 Charge =  1 Multiplicity = 1
 C                    -0.65814   1.87203  -2.42929 
 C                     0.14618   1.19109  -1.32447 
 C                     0.91662   2.14581  -0.4315 
 C                     1.64516   1.40764   0.69756 
 C                     2.19991   0.04318   0.19551 
 C                     2.23143   0.04563  -1.33893 
 O                     1.06911   0.26246  -1.98051 
 O                     2.63642   2.26903   1.21229 
 O                     1.88699   2.94721  -1.24572 
 O                    -1.54332   2.75345  -1.77291 
 H                    -1.19361   1.09487  -3.00601 
 H                     0.01601   2.40634  -3.12812 
 H                    -0.53446   0.60741  -0.68252 
 H                     0.24964   2.92563  -0.04712 
 H                     0.87721   1.16384   1.45707 
 H                     3.23398  -0.09486   0.56236 
 H                     2.75021  -0.79404  -1.81282 
 O                     1.3327   -0.96605   0.66715 
 C                    -2.45628   3.39373  -2.67338 
 H                    -3.08836   4.04656  -2.06247 
 H                    -1.91776   4.00042  -3.42103 
 H                    -3.08723   2.65197  -3.19085 
 C                     1.8579   -2.30474   0.59409 
 H                     1.89821  -2.6785   -0.44101 
 H                     2.85996  -2.35623   1.04998 
 H                     1.16553  -2.92956   1.16744 
 C                     3.0465    1.94041   2.55181 
 H                     2.18589   1.9705    3.23846 
 H                     3.52152   0.94736   2.60473 
 H                     3.77591   2.70305   2.84213 
 C                     3.00695   2.44661  -1.67201 
 O                     3.30876   1.20273  -1.71204 
 C                     4.01163   3.42601  -2.15075 
 H                     4.57082   3.78029  -1.27037 
 H                     3.51167   4.29317  -2.59589 
 H                     4.70853   2.95828  -2.85125 
 
 NAtoms=     36 NQM=       36 NQMF=       0 NMMI=      0 NMMIF=      0
                NMic=       0 NMicF=      0.
                    Isotopes and Nuclear Properties:
 (Nuclear quadrupole moments (NQMom) in fm**2, nuclear magnetic moments (NMagM)
  in nuclear magnetons)

  Atom         1           2           3           4           5           6           7           8           9          10
 IAtWgt=          12          12          12          12          12          12          16          16          16          16
 AtmWgt=  12.0000000  12.0000000  12.0000000  12.0000000  12.0000000  12.0000000  15.9949146  15.9949146  15.9949146  15.9949146
 NucSpn=           0           0           0           0           0           0           0           0           0           0
 AtZEff=   0.0000000   0.0000000   0.0000000   0.0000000   0.0000000   0.0000000   0.0000000   0.0000000   0.0000000   0.0000000
 NQMom=    0.0000000   0.0000000   0.0000000   0.0000000   0.0000000   0.0000000   0.0000000   0.0000000   0.0000000   0.0000000
 NMagM=    0.0000000   0.0000000   0.0000000   0.0000000   0.0000000   0.0000000   0.0000000   0.0000000   0.0000000   0.0000000
 AtZNuc=   6.0000000   6.0000000   6.0000000   6.0000000   6.0000000   6.0000000   8.0000000   8.0000000   8.0000000   8.0000000

  Atom        11          12          13          14          15          16          17          18          19          20
 IAtWgt=           1           1           1           1           1           1           1          16          12           1
 AtmWgt=   1.0078250   1.0078250   1.0078250   1.0078250   1.0078250   1.0078250   1.0078250  15.9949146  12.0000000   1.0078250
 NucSpn=           1           1           1           1           1           1           1           0           0           1
 AtZEff=   0.0000000   0.0000000   0.0000000   0.0000000   0.0000000   0.0000000   0.0000000   0.0000000   0.0000000   0.0000000
 NQMom=    0.0000000   0.0000000   0.0000000   0.0000000   0.0000000   0.0000000   0.0000000   0.0000000   0.0000000   0.0000000
 NMagM=    2.7928460   2.7928460   2.7928460   2.7928460   2.7928460   2.7928460   2.7928460   0.0000000   0.0000000   2.7928460
 AtZNuc=   1.0000000   1.0000000   1.0000000   1.0000000   1.0000000   1.0000000   1.0000000   8.0000000   6.0000000   1.0000000

  Atom        21          22          23          24          25          26          27          28          29          30
 IAtWgt=           1           1          12           1           1           1          12           1           1           1
 AtmWgt=   1.0078250   1.0078250  12.0000000   1.0078250   1.0078250   1.0078250  12.0000000   1.0078250   1.0078250   1.0078250
 NucSpn=           1           1           0           1           1           1           0           1           1           1
 AtZEff=   0.0000000   0.0000000   0.0000000   0.0000000   0.0000000   0.0000000   0.0000000   0.0000000   0.0000000   0.0000000
 NQMom=    0.0000000   0.0000000   0.0000000   0.0000000   0.0000000   0.0000000   0.0000000   0.0000000   0.0000000   0.0000000
 NMagM=    2.7928460   2.7928460   0.0000000   2.7928460   2.7928460   2.7928460   0.0000000   2.7928460   2.7928460   2.7928460
 AtZNuc=   1.0000000   1.0000000   6.0000000   1.0000000   1.0000000   1.0000000   6.0000000   1.0000000   1.0000000   1.0000000

  Atom        31          32          33          34          35          36
 IAtWgt=          12          16          12           1           1           1
 AtmWgt=  12.0000000  15.9949146  12.0000000   1.0078250   1.0078250   1.0078250
 NucSpn=           0           0           0           1           1           1
 AtZEff=   0.0000000   0.0000000   0.0000000   0.0000000   0.0000000   0.0000000
 NQMom=    0.0000000   0.0000000   0.0000000   0.0000000   0.0000000   0.0000000
 NMagM=    0.0000000   0.0000000   0.0000000   2.7928460   2.7928460   2.7928460
 AtZNuc=   6.0000000   8.0000000   6.0000000   1.0000000   1.0000000   1.0000000
 Leave Link  101 at Mon Jan  9 11:07:16 2017, MaxMem= 13421772800 cpu:         5.0
 (Enter /share/apps//g09/l103.exe)

 GradGradGradGradGradGradGradGradGradGradGradGradGradGradGradGradGradGrad
 Berny optimization.
 Initialization pass.
                           ----------------------------
                           !    Initial Parameters    !
                           ! (Angstroms and Degrees)  !
 --------------------------                            --------------------------
 ! Name  Definition              Value          Derivative Info.                !
 --------------------------------------------------------------------------------
 ! R1    R(1,2)                  1.5268         estimate D2E/DX2                !
 ! R2    R(1,10)                 1.4111         estimate D2E/DX2                !
 ! R3    R(1,11)                 1.106          estimate D2E/DX2                !
 ! R4    R(1,12)                 1.1083         estimate D2E/DX2                !
 ! R5    R(2,3)                  1.5174         estimate D2E/DX2                !
 ! R6    R(2,7)                  1.4644         estimate D2E/DX2                !
 ! R7    R(2,13)                 1.1027         estimate D2E/DX2                !
 ! R8    R(3,4)                  1.5331         estimate D2E/DX2                !
 ! R9    R(3,9)                  1.4989         estimate D2E/DX2                !
 ! R10   R(3,14)                 1.0958         estimate D2E/DX2                !
 ! R11   R(4,5)                  1.5561         estimate D2E/DX2                !
 ! R12   R(4,8)                  1.4105         estimate D2E/DX2                !
 ! R13   R(4,15)                 1.1073         estimate D2E/DX2                !
 ! R14   R(5,6)                  1.5348         estimate D2E/DX2                !
 ! R15   R(5,16)                 1.1059         estimate D2E/DX2                !
 ! R16   R(5,18)                 1.4118         estimate D2E/DX2                !
 ! R17   R(6,7)                  1.3452         estimate D2E/DX2                !
 ! R18   R(6,17)                 1.0949         estimate D2E/DX2                !
 ! R19   R(6,32)                 1.6244         estimate D2E/DX2                !
 ! R20   R(8,27)                 1.4389         estimate D2E/DX2                !
 ! R21   R(9,31)                 1.2987         estimate D2E/DX2                !
 ! R22   R(10,19)                1.4333         estimate D2E/DX2                !
 ! R23   R(18,23)                1.4399         estimate D2E/DX2                !
 ! R24   R(19,20)                1.095          estimate D2E/DX2                !
 ! R25   R(19,21)                1.1032         estimate D2E/DX2                !
 ! R26   R(19,22)                1.1028         estimate D2E/DX2                !
 ! R27   R(23,24)                1.1013         estimate D2E/DX2                !
 ! R28   R(23,25)                1.1021         estimate D2E/DX2                !
 ! R29   R(23,26)                1.0948         estimate D2E/DX2                !
 ! R30   R(27,28)                1.1014         estimate D2E/DX2                !
 ! R31   R(27,29)                1.1021         estimate D2E/DX2                !
 ! R32   R(27,30)                1.0945         estimate D2E/DX2                !
 ! R33   R(31,32)                1.2806         estimate D2E/DX2                !
 ! R34   R(31,33)                1.4825         estimate D2E/DX2                !
 ! R35   R(33,34)                1.1015         estimate D2E/DX2                !
 ! R36   R(33,35)                1.0955         estimate D2E/DX2                !
 ! R37   R(33,36)                1.0932         estimate D2E/DX2                !
 ! A1    A(2,1,10)             105.8093         estimate D2E/DX2                !
 ! A2    A(2,1,11)             108.6008         estimate D2E/DX2                !
 ! A3    A(2,1,12)             110.5384         estimate D2E/DX2                !
 ! A4    A(10,1,11)            112.194          estimate D2E/DX2                !
 ! A5    A(10,1,12)            111.9456         estimate D2E/DX2                !
 ! A6    A(11,1,12)            107.7252         estimate D2E/DX2                !
 ! A7    A(1,2,3)              114.3745         estimate D2E/DX2                !
 ! A8    A(1,2,7)              106.8966         estimate D2E/DX2                !
 ! A9    A(1,2,13)             109.399          estimate D2E/DX2                !
 ! A10   A(3,2,7)              110.0368         estimate D2E/DX2                !
 ! A11   A(3,2,13)             107.6879         estimate D2E/DX2                !
 ! A12   A(7,2,13)             108.309          estimate D2E/DX2                !
 ! A13   A(2,3,4)              111.8224         estimate D2E/DX2                !
 ! A14   A(2,3,9)              110.2075         estimate D2E/DX2                !
 ! A15   A(2,3,14)             110.1907         estimate D2E/DX2                !
 ! A16   A(4,3,9)              110.4768         estimate D2E/DX2                !
 ! A17   A(4,3,14)             111.9357         estimate D2E/DX2                !
 ! A18   A(9,3,14)             101.777          estimate D2E/DX2                !
 ! A19   A(3,4,5)              110.7313         estimate D2E/DX2                !
 ! A20   A(3,4,8)              107.9788         estimate D2E/DX2                !
 ! A21   A(3,4,15)             106.355          estimate D2E/DX2                !
 ! A22   A(5,4,8)              113.7456         estimate D2E/DX2                !
 ! A23   A(5,4,15)             105.9909         estimate D2E/DX2                !
 ! A24   A(8,4,15)             111.8117         estimate D2E/DX2                !
 ! A25   A(4,5,6)              109.1765         estimate D2E/DX2                !
 ! A26   A(4,5,16)             109.6196         estimate D2E/DX2                !
 ! A27   A(4,5,18)             107.4609         estimate D2E/DX2                !
 ! A28   A(6,5,16)             108.2194         estimate D2E/DX2                !
 ! A29   A(6,5,18)             110.3508         estimate D2E/DX2                !
 ! A30   A(16,5,18)            111.9835         estimate D2E/DX2                !
 ! A31   A(5,6,7)              117.3447         estimate D2E/DX2                !
 ! A32   A(5,6,17)             116.1831         estimate D2E/DX2                !
 ! A33   A(5,6,32)             104.1462         estimate D2E/DX2                !
 ! A34   A(7,6,17)             109.0618         estimate D2E/DX2                !
 ! A35   A(7,6,32)             110.4063         estimate D2E/DX2                !
 ! A36   A(17,6,32)             97.6211         estimate D2E/DX2                !
 ! A37   A(2,7,6)              115.6643         estimate D2E/DX2                !
 ! A38   A(4,8,27)             113.6114         estimate D2E/DX2                !
 ! A39   A(3,9,31)             122.0384         estimate D2E/DX2                !
 ! A40   A(1,10,19)            112.7285         estimate D2E/DX2                !
 ! A41   A(5,18,23)            115.0637         estimate D2E/DX2                !
 ! A42   A(10,19,20)           106.4705         estimate D2E/DX2                !
 ! A43   A(10,19,21)           111.1316         estimate D2E/DX2                !
 ! A44   A(10,19,22)           111.0248         estimate D2E/DX2                !
 ! A45   A(20,19,21)           109.3916         estimate D2E/DX2                !
 ! A46   A(20,19,22)           109.4244         estimate D2E/DX2                !
 ! A47   A(21,19,22)           109.3408         estimate D2E/DX2                !
 ! A48   A(18,23,24)           112.1224         estimate D2E/DX2                !
 ! A49   A(18,23,25)           110.7378         estimate D2E/DX2                !
 ! A50   A(18,23,26)           105.8648         estimate D2E/DX2                !
 ! A51   A(24,23,25)           109.8569         estimate D2E/DX2                !
 ! A52   A(24,23,26)           108.7661         estimate D2E/DX2                !
 ! A53   A(25,23,26)           109.3737         estimate D2E/DX2                !
 ! A54   A(8,27,28)            110.576          estimate D2E/DX2                !
 ! A55   A(8,27,29)            111.9208         estimate D2E/DX2                !
 ! A56   A(8,27,30)            106.1244         estimate D2E/DX2                !
 ! A57   A(28,27,29)           109.3583         estimate D2E/DX2                !
 ! A58   A(28,27,30)           109.6537         estimate D2E/DX2                !
 ! A59   A(29,27,30)           109.1396         estimate D2E/DX2                !
 ! A60   A(9,31,32)            126.0089         estimate D2E/DX2                !
 ! A61   A(9,31,33)            115.8342         estimate D2E/DX2                !
 ! A62   A(32,31,33)           118.1569         estimate D2E/DX2                !
 ! A63   A(6,32,31)            121.898          estimate D2E/DX2                !
 ! A64   A(31,33,34)           107.3631         estimate D2E/DX2                !
 ! A65   A(31,33,35)           110.1745         estimate D2E/DX2                !
 ! A66   A(31,33,36)           110.8719         estimate D2E/DX2                !
 ! A67   A(34,33,35)           107.5696         estimate D2E/DX2                !
 ! A68   A(34,33,36)           109.0339         estimate D2E/DX2                !
 ! A69   A(35,33,36)           111.6685         estimate D2E/DX2                !
 ! D1    D(10,1,2,3)           -58.289          estimate D2E/DX2                !
 ! D2    D(10,1,2,7)           179.6549         estimate D2E/DX2                !
 ! D3    D(10,1,2,13)           62.5874         estimate D2E/DX2                !
 ! D4    D(11,1,2,3)          -178.9212         estimate D2E/DX2                !
 ! D5    D(11,1,2,7)            59.0227         estimate D2E/DX2                !
 ! D6    D(11,1,2,13)          -58.0448         estimate D2E/DX2                !
 ! D7    D(12,1,2,3)            63.1013         estimate D2E/DX2                !
 ! D8    D(12,1,2,7)           -58.9549         estimate D2E/DX2                !
 ! D9    D(12,1,2,13)         -176.0224         estimate D2E/DX2                !
 ! D10   D(2,1,10,19)         -175.033          estimate D2E/DX2                !
 ! D11   D(11,1,10,19)         -56.7677         estimate D2E/DX2                !
 ! D12   D(12,1,10,19)          64.4895         estimate D2E/DX2                !
 ! D13   D(1,2,3,4)            177.1425         estimate D2E/DX2                !
 ! D14   D(1,2,3,9)            -59.5636         estimate D2E/DX2                !
 ! D15   D(1,2,3,14)            51.9726         estimate D2E/DX2                !
 ! D16   D(7,2,3,4)            -62.534          estimate D2E/DX2                !
 ! D17   D(7,2,3,9)             60.76           estimate D2E/DX2                !
 ! D18   D(7,2,3,14)           172.2962         estimate D2E/DX2                !
 ! D19   D(13,2,3,4)            55.3238         estimate D2E/DX2                !
 ! D20   D(13,2,3,9)           178.6178         estimate D2E/DX2                !
 ! D21   D(13,2,3,14)          -69.8461         estimate D2E/DX2                !
 ! D22   D(1,2,7,6)            149.9185         estimate D2E/DX2                !
 ! D23   D(3,2,7,6)             25.1761         estimate D2E/DX2                !
 ! D24   D(13,2,7,6)           -92.2967         estimate D2E/DX2                !
 ! D25   D(2,3,4,5)             37.1388         estimate D2E/DX2                !
 ! D26   D(2,3,4,8)            162.2723         estimate D2E/DX2                !
 ! D27   D(2,3,4,15)           -77.573          estimate D2E/DX2                !
 ! D28   D(9,3,4,5)            -86.0027         estimate D2E/DX2                !
 ! D29   D(9,3,4,8)             39.1307         estimate D2E/DX2                !
 ! D30   D(9,3,4,15)           159.2855         estimate D2E/DX2                !
 ! D31   D(14,3,4,5)           161.3375         estimate D2E/DX2                !
 ! D32   D(14,3,4,8)           -73.529          estimate D2E/DX2                !
 ! D33   D(14,3,4,15)           46.6257         estimate D2E/DX2                !
 ! D34   D(2,3,9,31)           -76.8428         estimate D2E/DX2                !
 ! D35   D(4,3,9,31)            47.2322         estimate D2E/DX2                !
 ! D36   D(14,3,9,31)          166.2572         estimate D2E/DX2                !
 ! D37   D(3,4,5,6)             17.2593         estimate D2E/DX2                !
 ! D38   D(3,4,5,16)           135.6447         estimate D2E/DX2                !
 ! D39   D(3,4,5,18)          -102.4353         estimate D2E/DX2                !
 ! D40   D(8,4,5,6)           -104.5481         estimate D2E/DX2                !
 ! D41   D(8,4,5,16)            13.8373         estimate D2E/DX2                !
 ! D42   D(8,4,5,18)           135.7573         estimate D2E/DX2                !
 ! D43   D(15,4,5,6)           132.1994         estimate D2E/DX2                !
 ! D44   D(15,4,5,16)         -109.4153         estimate D2E/DX2                !
 ! D45   D(15,4,5,18)           12.5048         estimate D2E/DX2                !
 ! D46   D(3,4,8,27)           157.8704         estimate D2E/DX2                !
 ! D47   D(5,4,8,27)           -78.808          estimate D2E/DX2                !
 ! D48   D(15,4,8,27)           41.2072         estimate D2E/DX2                !
 ! D49   D(4,5,6,7)            -57.8565         estimate D2E/DX2                !
 ! D50   D(4,5,6,17)           170.5392         estimate D2E/DX2                !
 ! D51   D(4,5,6,32)            64.4977         estimate D2E/DX2                !
 ! D52   D(16,5,6,7)          -177.1141         estimate D2E/DX2                !
 ! D53   D(16,5,6,17)           51.2816         estimate D2E/DX2                !
 ! D54   D(16,5,6,32)          -54.7599         estimate D2E/DX2                !
 ! D55   D(18,5,6,7)            60.037          estimate D2E/DX2                !
 ! D56   D(18,5,6,17)          -71.5672         estimate D2E/DX2                !
 ! D57   D(18,5,6,32)         -177.6088         estimate D2E/DX2                !
 ! D58   D(4,5,18,23)         -164.9592         estimate D2E/DX2                !
 ! D59   D(6,5,18,23)           76.0976         estimate D2E/DX2                !
 ! D60   D(16,5,18,23)         -44.5234         estimate D2E/DX2                !
 ! D61   D(5,6,7,2)             34.6336         estimate D2E/DX2                !
 ! D62   D(17,6,7,2)           169.4028         estimate D2E/DX2                !
 ! D63   D(32,6,7,2)           -84.441          estimate D2E/DX2                !
 ! D64   D(5,6,32,31)          -78.5316         estimate D2E/DX2                !
 ! D65   D(7,6,32,31)           48.2804         estimate D2E/DX2                !
 ! D66   D(17,6,32,31)         161.9424         estimate D2E/DX2                !
 ! D67   D(4,8,27,28)          -58.6962         estimate D2E/DX2                !
 ! D68   D(4,8,27,29)           63.4933         estimate D2E/DX2                !
 ! D69   D(4,8,27,30)         -177.5444         estimate D2E/DX2                !
 ! D70   D(3,9,31,32)           15.2277         estimate D2E/DX2                !
 ! D71   D(3,9,31,33)         -164.769          estimate D2E/DX2                !
 ! D72   D(1,10,19,20)         179.9674         estimate D2E/DX2                !
 ! D73   D(1,10,19,21)         -60.9899         estimate D2E/DX2                !
 ! D74   D(1,10,19,22)          60.9441         estimate D2E/DX2                !
 ! D75   D(5,18,23,24)         -72.4236         estimate D2E/DX2                !
 ! D76   D(5,18,23,25)          50.6682         estimate D2E/DX2                !
 ! D77   D(5,18,23,26)         169.116          estimate D2E/DX2                !
 ! D78   D(9,31,32,6)            5.6685         estimate D2E/DX2                !
 ! D79   D(33,31,32,6)        -174.3349         estimate D2E/DX2                !
 ! D80   D(9,31,33,34)          84.7516         estimate D2E/DX2                !
 ! D81   D(9,31,33,35)         -32.1098         estimate D2E/DX2                !
 ! D82   D(9,31,33,36)        -156.2413         estimate D2E/DX2                !
 ! D83   D(32,31,33,34)        -95.2454         estimate D2E/DX2                !
 ! D84   D(32,31,33,35)        147.8932         estimate D2E/DX2                !
 ! D85   D(32,31,33,36)         23.7617         estimate D2E/DX2                !
 --------------------------------------------------------------------------------
 Trust Radius=3.00D-01 FncErr=1.00D-07 GrdErr=1.00D-06
 Number of steps in this run=    216 maximum allowed number of steps=    216.
 GradGradGradGradGradGradGradGradGradGradGradGradGradGradGradGradGradGrad

 Leave Link  103 at Mon Jan  9 11:07:17 2017, MaxMem= 13421772800 cpu:         0.2
 (Enter /share/apps//g09/l202.exe)
                          Input orientation:                          
 ---------------------------------------------------------------------
 Center     Atomic      Atomic             Coordinates (Angstroms)
 Number     Number       Type             X           Y           Z
 ---------------------------------------------------------------------
      1          6           0       -0.658140    1.872030   -2.429290
      2          6           0        0.146180    1.191090   -1.324470
      3          6           0        0.916620    2.145810   -0.431500
      4          6           0        1.645160    1.407640    0.697560
      5          6           0        2.199910    0.043180    0.195510
      6          6           0        2.231430    0.045630   -1.338930
      7          8           0        1.069110    0.262460   -1.980510
      8          8           0        2.636420    2.269030    1.212290
      9          8           0        1.886990    2.947210   -1.245720
     10          8           0       -1.543320    2.753450   -1.772910
     11          1           0       -1.193610    1.094870   -3.006010
     12          1           0        0.016010    2.406340   -3.128120
     13          1           0       -0.534460    0.607410   -0.682520
     14          1           0        0.249640    2.925630   -0.047120
     15          1           0        0.877210    1.163840    1.457070
     16          1           0        3.233980   -0.094860    0.562360
     17          1           0        2.750210   -0.794040   -1.812820
     18          8           0        1.332700   -0.966050    0.667150
     19          6           0       -2.456280    3.393730   -2.673380
     20          1           0       -3.088360    4.046560   -2.062470
     21          1           0       -1.917760    4.000420   -3.421030
     22          1           0       -3.087230    2.651970   -3.190850
     23          6           0        1.857900   -2.304740    0.594090
     24          1           0        1.898210   -2.678500   -0.441010
     25          1           0        2.859960   -2.356230    1.049980
     26          1           0        1.165530   -2.929560    1.167440
     27          6           0        3.046500    1.940410    2.551810
     28          1           0        2.185890    1.970500    3.238460
     29          1           0        3.521520    0.947360    2.604730
     30          1           0        3.775910    2.703050    2.842130
     31          6           0        3.006950    2.446610   -1.672010
     32          8           0        3.308760    1.202730   -1.712040
     33          6           0        4.011630    3.426010   -2.150750
     34          1           0        4.570820    3.780290   -1.270370
     35          1           0        3.511670    4.293170   -2.595890
     36          1           0        4.708530    2.958280   -2.851250
 ---------------------------------------------------------------------
                    Distance matrix (angstroms):
                    1          2          3          4          5
     1  C    0.000000
     2  C    1.526839   0.000000
     3  C    2.558513   1.517387   0.000000
     4  C    3.911271   2.526349   1.533115   0.000000
     5  C    4.289839   2.801043   2.541855   1.556134   0.000000
     6  C    3.588069   2.379192   2.638733   2.519142   1.534766
     7  O    2.403229   1.464425   2.443295   2.969062   2.462084
     8  O    4.926747   3.714620   2.382213   1.410509   2.485717
     9  O    3.005751   2.473980   1.498938   2.491003   3.257062
    10  O    1.411127   2.344457   2.867039   4.252156   5.023148
    11  H    1.106034   2.152179   3.490795   4.676844   4.782443
    12  H    1.108300   2.178745   2.854949   4.276372   4.626063
    13  H    2.160038   1.102748   2.129629   2.701061   2.926785
    14  H    2.758418   2.156608   1.095778   2.192332   3.488687
    15  H    4.238234   2.876128   2.128970   1.107267   2.144049
    16  H    5.288405   3.840352   3.373206   2.190921   1.105864
    17  H    4.370905   3.310619   3.729989   3.517178   2.244361
    18  O    4.648234   3.166644   3.326233   2.394360   1.411752
    19  C    2.368218   3.666603   4.237899   5.668298   6.413799
    20  H    3.281632   4.377282   4.723640   6.081766   7.006520
    21  H    2.664627   4.067892   4.517807   6.031558   6.759757
    22  H    2.662472   4.009050   4.888867   6.250088   6.799049
    23  C    5.737307   4.339549   4.663179   3.719910   2.405944
    24  H    5.585294   4.338645   4.923167   4.249343   2.811356
    25  H    6.508497   5.058270   5.122472   3.970725   2.631151
    26  H    6.270367   4.922240   5.327095   4.388865   3.294203
    27  C    6.208091   4.898866   3.671337   2.384500   3.141392
    28  H    6.342050   5.058481   3.887208   2.658077   3.601986
    29  H    6.608020   5.185647   4.176180   2.714753   2.892842
    30  H    6.938246   5.729007   4.382090   3.288976   4.069801
    31  C    3.786357   3.143425   2.449250   2.923832   3.148876
    32  O    4.086405   3.186261   2.872545   2.935256   2.492559
    33  C    4.929421   4.540849   3.764813   4.217448   4.497867
    34  H    5.685646   5.126824   4.090037   4.249906   4.662189
    35  H    4.824623   4.750361   4.003751   4.759932   5.251194
    36  H    5.491733   5.125335   4.570982   4.937892   4.906499
                    6          7          8          9         10
     6  C    0.000000
     7  O    1.345224   0.000000
     8  O    3.408262   4.083718   0.000000
     9  O    2.923439   2.901160   2.657703   0.000000
    10  O    4.665765   3.615649   5.159100   3.475989   0.000000
    11  H    3.951071   2.620011   5.817374   4.002484   2.096120
    12  H    3.698951   2.649953   5.071939   2.708604   2.094896
    13  H    2.897692   2.091699   4.050403   3.413983   2.610026
    14  H    3.727018   3.391460   2.777401   2.029291   2.494535
    15  H    3.301806   3.558970   2.091933   3.391922   4.338041
    16  H    2.154007   3.358650   2.523383   3.786519   6.032326
    17  H    1.094874   1.992589   4.306581   3.881199   5.569621
    18  O    2.419828   2.930669   3.530242   4.390890   5.297175
    19  C    5.913134   4.765847   6.503766   4.593646   1.433283
    20  H    6.695604   5.622338   6.830576   5.160403   2.035467
    21  H    6.098466   4.996883   6.723535   4.507477   2.100343
    22  H    6.205704   4.944678   7.231490   5.349165   2.098692
    23  C    3.065996   3.720386   4.680559   5.564955   6.538828
    24  H    2.887591   3.421507   5.268435   5.682983   6.566899
    25  H    3.445413   4.387317   4.633502   5.860323   7.312073
    26  H    4.033583   4.484181   5.402857   6.393768   6.948390
    27  C    4.403679   5.221830   1.438913   4.096260   6.358513
    28  H    4.965853   5.603771   2.097013   4.599041   6.295542
    29  H    4.246163   5.244791   2.114025   4.636492   6.933852
    30  H    5.189274   6.044924   2.035483   4.509784   7.042396
    31  C    2.545011   2.936138   2.913420   1.298705   4.561720
    32  O    1.624417   2.443812   3.184453   2.298281   5.094224
    33  C    3.905782   4.323824   3.813115   2.358479   5.608259
    34  H    4.407395   5.014120   3.491334   2.810262   6.220101
    35  H    4.610917   4.753043   4.400618   2.504826   5.347986
    36  H    4.111772   4.612051   4.613140   3.246373   6.347472
                   11         12         13         14         15
    11  H    0.000000
    12  H    1.788308   0.000000
    13  H    2.463879   3.085470   0.000000
    14  H    3.766920   3.133178   2.528377   0.000000
    15  H    4.920583   4.827985   2.623027   2.400070   0.000000
    16  H    5.809671   5.498270   4.030391   4.289652   2.817658
    17  H    4.532703   4.410022   3.745757   4.817312   4.246599
    18  O    4.911389   5.245070   2.789923   4.102240   2.316868
    19  C    2.643811   2.700731   3.926894   3.799784   5.757185
    20  H    3.632192   3.669202   4.500491   4.057137   6.035146
    21  H    3.023054   2.523163   4.574437   4.151634   6.297135
    22  H    2.458561   3.113578   4.121720   4.592671   6.287645
    23  C    5.816337   6.280261   3.979163   5.509485   3.706418
    24  H    5.511524   6.051350   4.095536   5.854845   4.405533
    25  H    6.692726   6.944541   4.827712   5.992950   4.060531
    26  H    6.259334   6.945866   4.338488   6.049567   4.113750
    27  C    7.041508   6.454655   5.006102   3.943035   2.550948
    28  H    7.154100   6.740302   4.963104   3.931459   2.353018
    29  H    7.330390   6.876248   5.231878   4.653070   2.890737
    30  H    7.841117   7.061782   5.949299   4.564196   3.562305
    31  C    4.609931   3.326800   4.111366   3.236122   3.996553
    32  O    4.685865   3.781027   4.023016   3.885686   3.994647
    33  C    5.767166   4.237919   5.546813   4.339148   5.287567
    34  H    6.591857   5.107374   6.039588   4.571584   5.284647
    35  H    5.704120   4.007872   5.798015   4.359729   5.758435
    36  H    6.191244   4.732974   6.141573   5.267439   6.038265
                   16         17         18         19         20
    16  H    0.000000
    17  H    2.522770   0.000000
    18  O    2.093996   2.861673   0.000000
    19  C    7.417502   6.736878   6.672570   0.000000
    20  H    8.000817   7.588322   7.219616   1.094953   0.000000
    21  H    7.692798   6.882088   7.207255   1.103203   1.793912
    22  H    7.847889   6.917345   6.892751   1.102761   1.793913
    23  C    2.603492   2.978531   1.439883   7.858821   8.477135
    24  H    3.076724   2.481724   2.116673   7.798528   8.527687
    25  H    2.343386   3.263144   2.100401   8.671093   9.277153
    26  H    3.560917   3.994197   2.033127   8.237318   8.786020
    27  C    2.852259   5.158973   3.864785   7.726276   7.960148
    28  H    3.539169   5.785894   3.995359   7.650175   7.760644
    29  H    2.310882   4.810628   3.493750   8.341299   8.664774
    30  H    3.649567   5.911874   4.915497   8.350933   8.542735
    31  C    3.391610   3.253852   4.463298   5.634417   6.313882
    32  O    2.619585   2.075867   3.777428   6.241822   7.009516
    33  C    4.512453   4.417488   5.865784   6.489071   7.127604
    34  H    4.490304   4.953117   6.063592   7.176211   7.704632
    35  H    5.413544   5.203146   6.561611   6.035845   6.626141
    36  H    4.811309   4.358126   6.259052   7.180234   7.911891
                   21         22         23         24         25
    21  H    0.000000
    22  H    1.799711   0.000000
    23  C    8.374475   7.959212   0.000000
    24  H    8.249250   7.799368   1.101251   0.000000
    25  H    9.122694   8.856397   1.102094   1.803295   0.000000
    26  H    8.864838   8.260396   1.094763   1.785207   1.792651
    27  C    8.035069   8.432503   4.823561   5.622266   4.555371
    28  H    8.081419   8.343034   5.037653   5.935862   4.895346
    29  H    8.672758   8.953771   4.169707   5.005849   3.710609
    30  H    8.563190   9.137951   5.814672   6.577678   5.444913
    31  C    5.452171   6.283954   5.388029   5.386225   5.522509
    32  O    6.169621   6.722787   4.441348   4.320777   4.527292
    33  C    6.091077   7.216284   6.709262   6.682425   6.708600
    34  H    6.839259   7.975405   6.918362   7.038938   6.779966
    35  H    5.499570   6.825906   7.512879   7.473349   7.611282
    36  H    6.731896   7.809163   6.906217   6.743919   6.846957
                   26         27         28         29         30
    26  H    0.000000
    27  C    5.401031   0.000000
    28  H    5.416719   1.101382   0.000000
    29  H    4.758886   1.102086   1.797870   0.000000
    30  H    6.430005   1.094506   1.794957   1.789838   0.000000
    31  C    6.352677   4.254228   5.001353   4.561035   4.586341
    32  O    5.473633   4.335132   5.133981   4.329548   4.817640
    33  C    7.713880   5.025192   5.873280   5.385026   5.050454
    34  H    7.909551   4.507524   5.412280   4.913545   4.324926
    35  H    8.475544   5.678968   6.418109   6.183930   5.671893
    36  H    7.960489   5.743819   6.665132   5.934687   5.774902
                   31         32         33         34         35
    31  C    0.000000
    32  O    1.280597   0.000000
    33  C    1.482497   2.372650   0.000000
    34  H    2.094208   2.903736   1.101488   0.000000
    35  H    2.125578   3.220743   1.095480   1.772526   0.000000
    36  H    2.132554   2.517759   1.093225   1.787133   1.810970
                   36
    36  H    0.000000
 Stoichiometry    C11H19O6(1+)
 Framework group  C1[X(C11H19O6)]
 Deg. of freedom   102
 Full point group                 C1      NOp   1
 Largest Abelian subgroup         C1      NOp   1
 Largest concise Abelian subgroup C1      NOp   1
                         Standard orientation:                         
 ---------------------------------------------------------------------
 Center     Atomic      Atomic             Coordinates (Angstroms)
 Number     Number       Type             X           Y           Z
 ---------------------------------------------------------------------
      1          6           0       -2.595061   -0.756101   -0.376177
      2          6           0       -1.103948   -0.909006   -0.085593
      3          6           0       -0.515721    0.198278    0.769028
      4          6           0        0.964391   -0.049211    1.082811
      5          6           0        1.687651   -0.685544   -0.139289
      6          6           0        0.833283   -0.474596   -1.396692
      7          8           0       -0.421112   -0.960235   -1.380062
      8          8           0        1.530065    1.172000    1.504939
      9          8           0       -0.693844    1.524202    0.093001
     10          8           0       -3.230197   -0.717400    0.883341
     11          1           0       -2.926131   -1.618297   -0.984720
     12          1           0       -2.784290    0.164256   -0.963938
     13          1           0       -0.928626   -1.864322    0.436600
     14          1           0       -1.110793    0.329809    1.679697
     15          1           0        0.989773   -0.813092    1.883987
     16          1           0        2.661930   -0.186230   -0.295492
     17          1           0        1.304633   -0.734252   -2.350190
     18          8           0        1.836915   -2.063833    0.127322
     19          6           0       -4.659622   -0.689247    0.782088
     20          1           0       -5.042973   -0.661163    1.807357
     21          1           0       -5.002230    0.207363    0.238242
     22          1           0       -5.038087   -1.591643    0.273634
     23          6           0        2.772695   -2.751883   -0.723658
     24          1           0        2.383512   -2.885731   -1.745115
     25          1           0        3.735851   -2.217259   -0.757089
     26          1           0        2.920058   -3.737694   -0.270924
     27          6           0        2.724129    1.012553    2.291868
     28          1           0        2.518037    0.409579    3.190196
     29          1           0        3.537270    0.542679    1.715142
     30          1           0        3.030189    2.020927    2.587594
     31          6           0        0.054871    1.897097   -0.900482
     32          8           0        0.814012    1.137213   -1.597769
     33          6           0        0.008612    3.339846   -1.238319
     34          1           0        0.725117    3.854952   -0.579105
     35          1           0       -0.986567    3.745782   -1.026395
     36          1           0        0.298936    3.505653   -2.279166
 ---------------------------------------------------------------------
 Rotational constants (GHZ):      0.5702917      0.3725872      0.3152218
 Leave Link  202 at Mon Jan  9 11:07:17 2017, MaxMem= 13421772800 cpu:         0.5
 (Enter /share/apps//g09/l301.exe)
 Standard basis: 6-311+G(d,p) (5D, 7F)
 Ernie: Thresh=  0.10000D-02 Tol=  0.10000D-05 Strict=F.
 There are   505 symmetry adapted cartesian basis functions of A   symmetry.
 There are   488 symmetry adapted basis functions of A   symmetry.
   488 basis functions,   764 primitive gaussians,   505 cartesian basis functions
    66 alpha electrons       66 beta electrons
       nuclear repulsion energy      1432.9488981254 Hartrees.
 IExCor= 1009 DFT=T Ex+Corr=PBE1PBE ExCW=0 ScaHFX=  0.250000
 ScaDFX=  0.750000  0.750000  1.000000  1.000000 ScalE2=  1.000000  1.000000
 IRadAn=      0 IRanWt=     -1 IRanGd=            0 ICorTp=0 IEmpDi=131
 NAtoms=   36 NActive=   36 NUniq=   36 SFac= 1.00D+00 NAtFMM=   60 NAOKFM=F Big=F
 Integral buffers will be    131072 words long.
 Raffenetti 2 integral format.
 Two-electron integral symmetry is turned on.
 R6Disp:  Grimme-D3 Dispersion energy=       -0.0242040396 Hartrees.
 Nuclear repulsion after empirical dispersion term =     1432.9246940858 Hartrees.
 Leave Link  301 at Mon Jan  9 11:07:17 2017, MaxMem= 13421772800 cpu:         1.5
 (Enter /share/apps//g09/l302.exe)
 NPDir=0 NMtPBC=     1 NCelOv=     1 NCel=       1 NClECP=     1 NCelD=      1
         NCelK=      1 NCelE2=     1 NClLst=     1 CellRange=     0.0.
 One-electron integrals computed using PRISM.
 NBasis=   488 RedAO= T EigKep=  1.38D-06  NBF=   488
 NBsUse=   488 1.00D-06 EigRej= -1.00D+00 NBFU=   488
 Precomputing XC quadrature grid using
 IXCGrd= 4 IRadAn=           0 IRanWt=          -1 IRanGd=           0 AccXCQ= 0.00D+00.
 Generated NRdTot=       0 NPtTot=           0 NUsed=           0 NTot=          32
 NSgBfM=   502   503   504   504   504 MxSgAt=    36 MxSgA2=    36.
 Leave Link  302 at Mon Jan  9 11:07:18 2017, MaxMem= 13421772800 cpu:        12.2
 (Enter /share/apps//g09/l303.exe)
 DipDrv:  MaxL=1.
 Leave Link  303 at Mon Jan  9 11:07:18 2017, MaxMem= 13421772800 cpu:         5.4
 (Enter /share/apps//g09/l401.exe)
 ExpMin= 4.38D-02 ExpMax= 8.59D+03 ExpMxC= 1.30D+03 IAcc=2 IRadAn=         4 AccDes= 0.00D+00
 Harris functional with IExCor= 1009 and IRadAn=       4 diagonalized for initial guess.
 HarFok:  IExCor= 1009 AccDes= 0.00D+00 IRadAn=         4 IDoV= 1 UseB2=F ITyADJ=14
 ICtDFT=  3500011 ScaDFX=  1.000000  1.000000  1.000000  1.000000
 FoFCou: FMM=F IPFlag=           0 FMFlag=      100000 FMFlg1=           0
         NFxFlg=           0 DoJE=T BraDBF=F KetDBF=T FulRan=T
         wScrn=  0.000000 ICntrl=     500 IOpCl=  0 I1Cent=   200000004 NGrid=           0
         NMat0=    1 NMatS0=      1 NMatT0=    0 NMatD0=    1 NMtDS0=    0 NMtDT0=    0
 Petite list used in FoFCou.
 Harris En= -881.103545527014    
 JPrj=0 DoOrth=F DoCkMO=F.
 Leave Link  401 at Mon Jan  9 11:07:20 2017, MaxMem= 13421772800 cpu:        29.7
 (Enter /share/apps//g09/l502.exe)
 Closed shell SCF:
 Using DIIS extrapolation, IDIIS=  1040.
 Integral symmetry usage will be decided dynamically.
 Keep R1 ints in memory in canonical form, NReq=7183787934.
 IVT=      797493 IEndB=      797493 NGot= 13421772800 MDV=  6302761722
 LenX=  6302761722 LenY=  6302506192
 Requested convergence on RMS density matrix=1.00D-08 within 128 cycles.
 Requested convergence on MAX density matrix=1.00D-06.
 Requested convergence on             energy=1.00D-06.
 No special actions if energy rises.
 FoFCou: FMM=F IPFlag=           0 FMFlag=           0 FMFlg1=           0
         NFxFlg=           0 DoJE=F BraDBF=F KetDBF=F FulRan=T
         wScrn=  0.000000 ICntrl=     600 IOpCl=  0 I1Cent=           0 NGrid=           0
         NMat0=    1 NMatS0= 119316 NMatT0=    0 NMatD0=    1 NMtDS0=    0 NMtDT0=    0
 Symmetry not used in FoFCou.

 Cycle   1  Pass 1  IDiag  1:
 E= -880.655247349019    
 DIIS: error= 1.74D-02 at cycle   1 NSaved=   1.
 NSaved= 1 IEnMin= 1 EnMin= -880.655247349019     IErMin= 1 ErrMin= 1.74D-02
 ErrMax= 1.74D-02  0.00D+00 EMaxC= 1.00D-01 BMatC= 3.69D-01 BMatP= 3.69D-01
 IDIUse=3 WtCom= 8.26D-01 WtEn= 1.74D-01
 Coeff-Com:  0.100D+01
 Coeff-En:   0.100D+01
 Coeff:      0.100D+01
 Gap=     0.125 Goal=   None    Shift=    0.000
 GapD=    0.125 DampG=1.000 DampE=0.500 DampFc=0.5000 IDamp=-1.
 Damping current iteration by 5.00D-01
 RMSDP=1.42D-02 MaxDP=1.68D+00              OVMax= 1.22D-01

 Cycle   2  Pass 1  IDiag  1:
 E= -880.779982179904     Delta-E=       -0.124734830885 Rises=F Damp=T
 DIIS: error= 3.43D-03 at cycle   2 NSaved=   2.
 NSaved= 2 IEnMin= 2 EnMin= -880.779982179904     IErMin= 2 ErrMin= 3.43D-03
 ErrMax= 3.43D-03  0.00D+00 EMaxC= 1.00D-01 BMatC= 2.85D-02 BMatP= 3.69D-01
 IDIUse=3 WtCom= 9.66D-01 WtEn= 3.43D-02
 Coeff-Com: -0.146D-01 0.101D+01
 Coeff-En:   0.406D-01 0.959D+00
 Coeff:     -0.127D-01 0.101D+01
 Gap=     0.228 Goal=   None    Shift=    0.000
 RMSDP=7.49D-03 MaxDP=1.40D+00 DE=-1.25D-01 OVMax= 8.28D-02

 Cycle   3  Pass 1  IDiag  1:
 E= -880.913287652076     Delta-E=       -0.133305472172 Rises=F Damp=F
 DIIS: error= 4.45D-03 at cycle   3 NSaved=   3.
 NSaved= 3 IEnMin= 3 EnMin= -880.913287652076     IErMin= 2 ErrMin= 3.43D-03
 ErrMax= 4.45D-03  0.00D+00 EMaxC= 1.00D-01 BMatC= 1.89D-02 BMatP= 2.85D-02
 IDIUse=3 WtCom= 9.55D-01 WtEn= 4.45D-02
 Coeff-Com: -0.927D-01 0.468D+00 0.624D+00
 Coeff-En:   0.000D+00 0.000D+00 0.100D+01
 Coeff:     -0.886D-01 0.448D+00 0.641D+00
 Gap=     0.194 Goal=   None    Shift=    0.000
 RMSDP=1.67D-03 MaxDP=1.59D-01 DE=-1.33D-01 OVMax= 2.16D-02

 Cycle   4  Pass 1  IDiag  1:
 E= -880.924930479306     Delta-E=       -0.011642827230 Rises=F Damp=F
 DIIS: error= 2.45D-03 at cycle   4 NSaved=   4.
 NSaved= 4 IEnMin= 4 EnMin= -880.924930479306     IErMin= 4 ErrMin= 2.45D-03
 ErrMax= 2.45D-03  0.00D+00 EMaxC= 1.00D-01 BMatC= 3.68D-03 BMatP= 1.89D-02
 IDIUse=3 WtCom= 9.75D-01 WtEn= 2.45D-02
 Coeff-Com: -0.467D-01 0.150D+00 0.359D+00 0.538D+00
 Coeff-En:   0.000D+00 0.000D+00 0.126D+00 0.874D+00
 Coeff:     -0.456D-01 0.146D+00 0.353D+00 0.546D+00
 Gap=     0.198 Goal=   None    Shift=    0.000
 RMSDP=9.00D-04 MaxDP=1.44D-01 DE=-1.16D-02 OVMax= 7.07D-03

 Cycle   5  Pass 1  IDiag  1:
 E= -880.927576383041     Delta-E=       -0.002645903734 Rises=F Damp=F
 DIIS: error= 4.07D-04 at cycle   5 NSaved=   5.
 NSaved= 5 IEnMin= 5 EnMin= -880.927576383041     IErMin= 5 ErrMin= 4.07D-04
 ErrMax= 4.07D-04  0.00D+00 EMaxC= 1.00D-01 BMatC= 1.50D-04 BMatP= 3.68D-03
 IDIUse=3 WtCom= 9.96D-01 WtEn= 4.07D-03
 Coeff-Com: -0.148D-01 0.358D-01 0.120D+00 0.251D+00 0.608D+00
 Coeff-En:   0.000D+00 0.000D+00 0.000D+00 0.000D+00 0.100D+01
 Coeff:     -0.148D-01 0.356D-01 0.120D+00 0.250D+00 0.609D+00
 Gap=     0.199 Goal=   None    Shift=    0.000
 RMSDP=1.54D-04 MaxDP=1.71D-02 DE=-2.65D-03 OVMax= 2.14D-03

 Cycle   6  Pass 1  IDiag  1:
 E= -880.927651701518     Delta-E=       -0.000075318477 Rises=F Damp=F
 DIIS: error= 2.30D-04 at cycle   6 NSaved=   6.
 NSaved= 6 IEnMin= 6 EnMin= -880.927651701518     IErMin= 6 ErrMin= 2.30D-04
 ErrMax= 2.30D-04  0.00D+00 EMaxC= 1.00D-01 BMatC= 4.38D-05 BMatP= 1.50D-04
 IDIUse=3 WtCom= 9.98D-01 WtEn= 2.30D-03
 Coeff-Com: -0.586D-02 0.106D-01 0.484D-01 0.120D+00 0.409D+00 0.419D+00
 Coeff-En:   0.000D+00 0.000D+00 0.000D+00 0.000D+00 0.224D+00 0.776D+00
 Coeff:     -0.585D-02 0.106D-01 0.483D-01 0.119D+00 0.408D+00 0.419D+00
 Gap=     0.199 Goal=   None    Shift=    0.000
 RMSDP=8.49D-05 MaxDP=1.08D-02 DE=-7.53D-05 OVMax= 1.09D-03

 Cycle   7  Pass 1  IDiag  1:
 E= -880.927682892300     Delta-E=       -0.000031190782 Rises=F Damp=F
 DIIS: error= 3.52D-05 at cycle   7 NSaved=   7.
 NSaved= 7 IEnMin= 7 EnMin= -880.927682892300     IErMin= 7 ErrMin= 3.52D-05
 ErrMax= 3.52D-05  0.00D+00 EMaxC= 1.00D-01 BMatC= 1.32D-06 BMatP= 4.38D-05
 IDIUse=1 WtCom= 1.00D+00 WtEn= 0.00D+00
 Coeff-Com: -0.196D-02 0.298D-02 0.164D-01 0.450D-01 0.174D+00 0.222D+00
 Coeff-Com:  0.542D+00
 Coeff:     -0.196D-02 0.298D-02 0.164D-01 0.450D-01 0.174D+00 0.222D+00
 Coeff:      0.542D+00
 Gap=     0.199 Goal=   None    Shift=    0.000
 RMSDP=1.65D-05 MaxDP=2.34D-03 DE=-3.12D-05 OVMax= 1.85D-04

 Cycle   8  Pass 1  IDiag  1:
 E= -880.927683916849     Delta-E=       -0.000001024549 Rises=F Damp=F
 DIIS: error= 1.01D-05 at cycle   8 NSaved=   8.
 NSaved= 8 IEnMin= 8 EnMin= -880.927683916849     IErMin= 8 ErrMin= 1.01D-05
 ErrMax= 1.01D-05  0.00D+00 EMaxC= 1.00D-01 BMatC= 9.33D-08 BMatP= 1.32D-06
 IDIUse=1 WtCom= 1.00D+00 WtEn= 0.00D+00
 Coeff-Com: -0.165D-04-0.205D-03 0.118D-03 0.277D-02 0.175D-01 0.354D-01
 Coeff-Com:  0.231D+00 0.714D+00
 Coeff:     -0.165D-04-0.205D-03 0.118D-03 0.277D-02 0.175D-01 0.354D-01
 Coeff:      0.231D+00 0.714D+00
 Gap=     0.199 Goal=   None    Shift=    0.000
 RMSDP=7.22D-06 MaxDP=1.06D-03 DE=-1.02D-06 OVMax= 3.92D-05

 Cycle   9  Pass 1  IDiag  1:
 E= -880.927683974682     Delta-E=       -0.000000057833 Rises=F Damp=F
 DIIS: error= 4.48D-06 at cycle   9 NSaved=   9.
 NSaved= 9 IEnMin= 9 EnMin= -880.927683974682     IErMin= 9 ErrMin= 4.48D-06
 ErrMax= 4.48D-06  0.00D+00 EMaxC= 1.00D-01 BMatC= 1.94D-08 BMatP= 9.33D-08
 IDIUse=1 WtCom= 1.00D+00 WtEn= 0.00D+00
 Coeff-Com:  0.822D-04-0.251D-03-0.817D-03-0.882D-03-0.533D-03 0.585D-02
 Coeff-Com:  0.943D-01 0.401D+00 0.501D+00
 Coeff:      0.822D-04-0.251D-03-0.817D-03-0.882D-03-0.533D-03 0.585D-02
 Coeff:      0.943D-01 0.401D+00 0.501D+00
 Gap=     0.199 Goal=   None    Shift=    0.000
 RMSDP=1.73D-06 MaxDP=2.53D-04 DE=-5.78D-08 OVMax= 1.95D-05

 Cycle  10  Pass 1  IDiag  1:
 E= -880.927683988557     Delta-E=       -0.000000013874 Rises=F Damp=F
 DIIS: error= 9.07D-07 at cycle  10 NSaved=  10.
 NSaved=10 IEnMin=10 EnMin= -880.927683988557     IErMin=10 ErrMin= 9.07D-07
 ErrMax= 9.07D-07  0.00D+00 EMaxC= 1.00D-01 BMatC= 8.50D-10 BMatP= 1.94D-08
 IDIUse=1 WtCom= 1.00D+00 WtEn= 0.00D+00
 Coeff-Com:  0.429D-04-0.950D-04-0.442D-03-0.803D-03-0.267D-02-0.194D-02
 Coeff-Com:  0.170D-01 0.968D-01 0.212D+00 0.681D+00
 Coeff:      0.429D-04-0.950D-04-0.442D-03-0.803D-03-0.267D-02-0.194D-02
 Coeff:      0.170D-01 0.968D-01 0.212D+00 0.681D+00
 Gap=     0.199 Goal=   None    Shift=    0.000
 RMSDP=7.23D-07 MaxDP=1.18D-04 DE=-1.39D-08 OVMax= 3.90D-06

 Cycle  11  Pass 1  IDiag  1:
 E= -880.927683989215     Delta-E=       -0.000000000658 Rises=F Damp=F
 DIIS: error= 2.53D-07 at cycle  11 NSaved=  11.
 NSaved=11 IEnMin=11 EnMin= -880.927683989215     IErMin=11 ErrMin= 2.53D-07
 ErrMax= 2.53D-07  0.00D+00 EMaxC= 1.00D-01 BMatC= 6.44D-11 BMatP= 8.50D-10
 IDIUse=1 WtCom= 1.00D+00 WtEn= 0.00D+00
 Coeff-Com:  0.129D-04-0.258D-04-0.144D-03-0.288D-03-0.109D-02-0.114D-02
 Coeff-Com:  0.223D-02 0.187D-01 0.602D-01 0.299D+00 0.622D+00
 Coeff:      0.129D-04-0.258D-04-0.144D-03-0.288D-03-0.109D-02-0.114D-02
 Coeff:      0.223D-02 0.187D-01 0.602D-01 0.299D+00 0.622D+00
 Gap=     0.199 Goal=   None    Shift=    0.000
 RMSDP=1.22D-07 MaxDP=2.10D-05 DE=-6.58D-10 OVMax= 1.36D-06

 Cycle  12  Pass 1  IDiag  1:
 E= -880.927683989251     Delta-E=       -0.000000000036 Rises=F Damp=F
 DIIS: error= 9.10D-08 at cycle  12 NSaved=  12.
 NSaved=12 IEnMin=12 EnMin= -880.927683989251     IErMin=12 ErrMin= 9.10D-08
 ErrMax= 9.10D-08  0.00D+00 EMaxC= 1.00D-01 BMatC= 9.97D-12 BMatP= 6.44D-11
 IDIUse=1 WtCom= 1.00D+00 WtEn= 0.00D+00
 Coeff-Com:  0.144D-05-0.186D-05-0.234D-04-0.541D-04-0.242D-03-0.335D-03
 Coeff-Com: -0.839D-03-0.189D-02 0.596D-02 0.759D-01 0.327D+00 0.594D+00
 Coeff:      0.144D-05-0.186D-05-0.234D-04-0.541D-04-0.242D-03-0.335D-03
 Coeff:     -0.839D-03-0.189D-02 0.596D-02 0.759D-01 0.327D+00 0.594D+00
 Gap=     0.199 Goal=   None    Shift=    0.000
 RMSDP=4.13D-08 MaxDP=5.53D-06 DE=-3.64D-11 OVMax= 4.54D-07

 Cycle  13  Pass 1  IDiag  1:
 E= -880.927683989284     Delta-E=       -0.000000000033 Rises=F Damp=F
 DIIS: error= 2.30D-08 at cycle  13 NSaved=  13.
 NSaved=13 IEnMin=13 EnMin= -880.927683989284     IErMin=13 ErrMin= 2.30D-08
 ErrMax= 2.30D-08  0.00D+00 EMaxC= 1.00D-01 BMatC= 6.85D-13 BMatP= 9.97D-12
 IDIUse=1 WtCom= 1.00D+00 WtEn= 0.00D+00
 Coeff-Com: -0.222D-06 0.912D-06-0.880D-06-0.475D-05-0.316D-04-0.586D-04
 Coeff-Com: -0.527D-03-0.208D-02-0.130D-02 0.111D-01 0.101D+00 0.275D+00
 Coeff-Com:  0.617D+00
 Coeff:     -0.222D-06 0.912D-06-0.880D-06-0.475D-05-0.316D-04-0.586D-04
 Coeff:     -0.527D-03-0.208D-02-0.130D-02 0.111D-01 0.101D+00 0.275D+00
 Coeff:      0.617D+00
 Gap=     0.199 Goal=   None    Shift=    0.000
 RMSDP=1.72D-08 MaxDP=2.52D-06 DE=-3.27D-11 OVMax= 1.76D-07

 Cycle  14  Pass 1  IDiag  1:
 E= -880.927683989280     Delta-E=        0.000000000004 Rises=F Damp=F
 DIIS: error= 9.10D-09 at cycle  14 NSaved=  14.
 NSaved=14 IEnMin=13 EnMin= -880.927683989284     IErMin=14 ErrMin= 9.10D-09
 ErrMax= 9.10D-09  0.00D+00 EMaxC= 1.00D-01 BMatC= 1.09D-13 BMatP= 6.85D-13
 IDIUse=1 WtCom= 1.00D+00 WtEn= 0.00D+00
 Coeff-Com: -0.276D-06 0.701D-06 0.215D-05 0.328D-05 0.976D-05 0.572D-05
 Coeff-Com: -0.213D-03-0.998D-03-0.143D-02-0.297D-02 0.187D-01 0.822D-01
 Coeff-Com:  0.334D+00 0.571D+00
 Coeff:     -0.276D-06 0.701D-06 0.215D-05 0.328D-05 0.976D-05 0.572D-05
 Coeff:     -0.213D-03-0.998D-03-0.143D-02-0.297D-02 0.187D-01 0.822D-01
 Coeff:      0.334D+00 0.571D+00
 Gap=     0.199 Goal=   None    Shift=    0.000
 RMSDP=5.11D-09 MaxDP=9.75D-07 DE= 4.09D-12 OVMax= 4.26D-08

 SCF Done:  E(RPBE1PBE) =  -880.927683989     A.U. after   14 cycles
            NFock= 14  Conv=0.51D-08     -V/T= 2.0043
 KE= 8.771304909884D+02 PE=-4.908719273301D+03 EE= 1.717736404238D+03
 Leave Link  502 at Mon Jan  9 11:10:35 2017, MaxMem= 13421772800 cpu:       918.5
 (Enter /share/apps//g09/l601.exe)
 Copying SCF densities to generalized density rwf, IOpCl= 0 IROHF=0.

 **********************************************************************

            Population analysis using the SCF density.

 **********************************************************************

 Orbital symmetries:
       Occupied  (A) (A) (A) (A) (A) (A) (A) (A) (A) (A) (A) (A)
                 (A) (A) (A) (A) (A) (A) (A) (A) (A) (A) (A) (A)
                 (A) (A) (A) (A) (A) (A) (A) (A) (A) (A) (A) (A)
                 (A) (A) (A) (A) (A) (A) (A) (A) (A) (A) (A) (A)
                 (A) (A) (A) (A) (A) (A) (A) (A) (A) (A) (A) (A)
                 (A) (A) (A) (A) (A) (A)
       Virtual   (A) (A) (A) (A) (A) (A) (A) (A) (A) (A) (A) (A)
                 (A) (A) (A) (A) (A) (A) (A) (A) (A) (A) (A) (A)
                 (A) (A) (A) (A) (A) (A) (A) (A) (A) (A) (A) (A)
                 (A) (A) (A) (A) (A) (A) (A) (A) (A) (A) (A) (A)
                 (A) (A) (A) (A) (A) (A) (A) (A) (A) (A) (A) (A)
                 (A) (A) (A) (A) (A) (A) (A) (A) (A) (A) (A) (A)
                 (A) (A) (A) (A) (A) (A) (A) (A) (A) (A) (A) (A)
                 (A) (A) (A) (A) (A) (A) (A) (A) (A) (A) (A) (A)
                 (A) (A) (A) (A) (A) (A) (A) (A) (A) (A) (A) (A)
                 (A) (A) (A) (A) (A) (A) (A) (A) (A) (A) (A) (A)
                 (A) (A) (A) (A) (A) (A) (A) (A) (A) (A) (A) (A)
                 (A) (A) (A) (A) (A) (A) (A) (A) (A) (A) (A) (A)
                 (A) (A) (A) (A) (A) (A) (A) (A) (A) (A) (A) (A)
                 (A) (A) (A) (A) (A) (A) (A) (A) (A) (A) (A) (A)
                 (A) (A) (A) (A) (A) (A) (A) (A) (A) (A) (A) (A)
                 (A) (A) (A) (A) (A) (A) (A) (A) (A) (A) (A) (A)
                 (A) (A) (A) (A) (A) (A) (A) (A) (A) (A) (A) (A)
                 (A) (A) (A) (A) (A) (A) (A) (A) (A) (A) (A) (A)
                 (A) (A) (A) (A) (A) (A) (A) (A) (A) (A) (A) (A)
                 (A) (A) (A) (A) (A) (A) (A) (A) (A) (A) (A) (A)
                 (A) (A) (A) (A) (A) (A) (A) (A) (A) (A) (A) (A)
                 (A) (A) (A) (A) (A) (A) (A) (A) (A) (A) (A) (A)
                 (A) (A) (A) (A) (A) (A) (A) (A) (A) (A) (A) (A)
                 (A) (A) (A) (A) (A) (A) (A) (A) (A) (A) (A) (A)
                 (A) (A) (A) (A) (A) (A) (A) (A) (A) (A) (A) (A)
                 (A) (A) (A) (A) (A) (A) (A) (A) (A) (A) (A) (A)
                 (A) (A) (A) (A) (A) (A) (A) (A) (A) (A) (A) (A)
                 (A) (A) (A) (A) (A) (A) (A) (A) (A) (A) (A) (A)
                 (A) (A) (A) (A) (A) (A) (A) (A) (A) (A) (A) (A)
                 (A) (A) (A) (A) (A) (A) (A) (A) (A) (A) (A) (A)
                 (A) (A) (A) (A) (A) (A) (A) (A) (A) (A) (A) (A)
                 (A) (A) (A) (A) (A) (A) (A) (A) (A) (A) (A) (A)
                 (A) (A) (A) (A) (A) (A) (A) (A) (A) (A) (A) (A)
                 (A) (A) (A) (A) (A) (A) (A) (A) (A) (A) (A) (A)
                 (A) (A) (A) (A) (A) (A) (A) (A) (A) (A) (A) (A)
                 (A) (A)
 The electronic state is 1-A.
 Alpha  occ. eigenvalues --  -19.44873 -19.44172 -19.40850 -19.36140 -19.36086
 Alpha  occ. eigenvalues --  -19.33543 -10.57027 -10.51454 -10.46153 -10.44580
 Alpha  occ. eigenvalues --  -10.44353 -10.44272 -10.40675 -10.39218 -10.39177
 Alpha  occ. eigenvalues --  -10.38821 -10.36996  -1.35038  -1.28034  -1.26016
 Alpha  occ. eigenvalues --   -1.22068  -1.20888  -1.19044  -1.00997  -0.97867
 Alpha  occ. eigenvalues --   -0.94678  -0.89468  -0.87395  -0.85395  -0.82606
 Alpha  occ. eigenvalues --   -0.80830  -0.78397  -0.77261  -0.76078  -0.72417
 Alpha  occ. eigenvalues --   -0.70957  -0.68007  -0.66974  -0.66444  -0.65879
 Alpha  occ. eigenvalues --   -0.63651  -0.63343  -0.62835  -0.61488  -0.61077
 Alpha  occ. eigenvalues --   -0.60450  -0.59203  -0.58370  -0.57803  -0.57249
 Alpha  occ. eigenvalues --   -0.56828  -0.56547  -0.55482  -0.54570  -0.53700
 Alpha  occ. eigenvalues --   -0.52275  -0.52181  -0.51662  -0.49053  -0.48313
 Alpha  occ. eigenvalues --   -0.47832  -0.46996  -0.46176  -0.43065  -0.41727
 Alpha  occ. eigenvalues --   -0.39863
 Alpha virt. eigenvalues --   -0.19952  -0.12461  -0.11655  -0.09874  -0.09032
 Alpha virt. eigenvalues --   -0.08442  -0.08000  -0.07225  -0.07044  -0.06532
 Alpha virt. eigenvalues --   -0.06027  -0.05822  -0.05669  -0.04837  -0.04580
 Alpha virt. eigenvalues --   -0.03894  -0.03628  -0.02849  -0.02551  -0.02359
 Alpha virt. eigenvalues --   -0.01938  -0.01516  -0.01157  -0.00517  -0.00202
 Alpha virt. eigenvalues --   -0.00139   0.00329   0.00757   0.01181   0.01568
 Alpha virt. eigenvalues --    0.01797   0.02275   0.02739   0.02954   0.03363
 Alpha virt. eigenvalues --    0.03478   0.04170   0.04534   0.05098   0.05406
 Alpha virt. eigenvalues --    0.05808   0.06286   0.06665   0.06983   0.07122
 Alpha virt. eigenvalues --    0.07453   0.07732   0.08419   0.08517   0.08658
 Alpha virt. eigenvalues --    0.09083   0.09514   0.09866   0.10510   0.11066
 Alpha virt. eigenvalues --    0.11145   0.11547   0.11971   0.12491   0.12689
 Alpha virt. eigenvalues --    0.12778   0.13248   0.13675   0.14230   0.14335
 Alpha virt. eigenvalues --    0.14733   0.15057   0.15324   0.15650   0.16153
 Alpha virt. eigenvalues --    0.16734   0.17494   0.17759   0.18012   0.18449
 Alpha virt. eigenvalues --    0.19259   0.19482   0.19916   0.20172   0.20797
 Alpha virt. eigenvalues --    0.21414   0.21884   0.22394   0.23053   0.23691
 Alpha virt. eigenvalues --    0.24030   0.24468   0.25264   0.25369   0.25551
 Alpha virt. eigenvalues --    0.26426   0.27305   0.27513   0.27843   0.28726
 Alpha virt. eigenvalues --    0.29314   0.29662   0.30218   0.30298   0.30989
 Alpha virt. eigenvalues --    0.31716   0.32224   0.33157   0.33627   0.34461
 Alpha virt. eigenvalues --    0.34844   0.35750   0.36705   0.37233   0.38084
 Alpha virt. eigenvalues --    0.38527   0.40346   0.40956   0.41379   0.43054
 Alpha virt. eigenvalues --    0.43653   0.44569   0.44765   0.44855   0.45794
 Alpha virt. eigenvalues --    0.46024   0.47094   0.47847   0.48843   0.49054
 Alpha virt. eigenvalues --    0.49852   0.50698   0.51626   0.53045   0.53456
 Alpha virt. eigenvalues --    0.54264   0.55051   0.55709   0.56338   0.56771
 Alpha virt. eigenvalues --    0.57157   0.57735   0.57864   0.58415   0.59026
 Alpha virt. eigenvalues --    0.59282   0.59432   0.60227   0.61238   0.61763
 Alpha virt. eigenvalues --    0.62211   0.62655   0.62971   0.64128   0.64500
 Alpha virt. eigenvalues --    0.65051   0.66004   0.66616   0.67102   0.69325
 Alpha virt. eigenvalues --    0.71360   0.71907   0.76078   0.78255   0.80693
 Alpha virt. eigenvalues --    0.82294   0.85304   0.86939   0.87485   0.89049
 Alpha virt. eigenvalues --    0.91243   0.92150   0.93790   0.95185   0.96104
 Alpha virt. eigenvalues --    0.96707   0.97778   0.98878   0.99784   1.00875
 Alpha virt. eigenvalues --    1.01097   1.02142   1.04233   1.04978   1.06258
 Alpha virt. eigenvalues --    1.07251   1.09270   1.10200   1.12182   1.14562
 Alpha virt. eigenvalues --    1.15065   1.16288   1.17427   1.19147   1.20096
 Alpha virt. eigenvalues --    1.20604   1.22277   1.22812   1.24256   1.25943
 Alpha virt. eigenvalues --    1.26202   1.26716   1.27548   1.29339   1.30550
 Alpha virt. eigenvalues --    1.31677   1.32298   1.33893   1.34736   1.34795
 Alpha virt. eigenvalues --    1.35975   1.36661   1.38212   1.39372   1.40201
 Alpha virt. eigenvalues --    1.41101   1.42485   1.43572   1.44183   1.44496
 Alpha virt. eigenvalues --    1.45190   1.45477   1.46116   1.46800   1.46913
 Alpha virt. eigenvalues --    1.47296   1.48032   1.48346   1.49755   1.50028
 Alpha virt. eigenvalues --    1.51325   1.51621   1.53390   1.54168   1.55659
 Alpha virt. eigenvalues --    1.56331   1.56912   1.58005   1.58613   1.59514
 Alpha virt. eigenvalues --    1.60485   1.60897   1.61365   1.62858   1.63675
 Alpha virt. eigenvalues --    1.65181   1.65398   1.66114   1.67209   1.67353
 Alpha virt. eigenvalues --    1.70059   1.70613   1.71633   1.72970   1.74992
 Alpha virt. eigenvalues --    1.76105   1.78168   1.79369   1.80172   1.80737
 Alpha virt. eigenvalues --    1.82789   1.84351   1.85878   1.87904   1.88683
 Alpha virt. eigenvalues --    1.90733   1.91199   1.91532   1.92647   1.94066
 Alpha virt. eigenvalues --    1.95898   1.99687   2.00236   2.01258   2.01923
 Alpha virt. eigenvalues --    2.03326   2.04846   2.05652   2.07073   2.08100
 Alpha virt. eigenvalues --    2.08705   2.09382   2.11362   2.12519   2.13948
 Alpha virt. eigenvalues --    2.14870   2.18476   2.19278   2.20083   2.21604
 Alpha virt. eigenvalues --    2.23589   2.31960   2.33231   2.33600   2.33769
 Alpha virt. eigenvalues --    2.34616   2.36501   2.39370   2.39763   2.39919
 Alpha virt. eigenvalues --    2.40667   2.41427   2.42291   2.42374   2.43481
 Alpha virt. eigenvalues --    2.44093   2.44473   2.45214   2.46158   2.47003
 Alpha virt. eigenvalues --    2.47792   2.48552   2.48896   2.50413   2.51979
 Alpha virt. eigenvalues --    2.55635   2.55944   2.57115   2.59246   2.60501
 Alpha virt. eigenvalues --    2.63828   2.66599   2.68911   2.69932   2.71935
 Alpha virt. eigenvalues --    2.72059   2.73743   2.74508   2.76557   2.77217
 Alpha virt. eigenvalues --    2.78006   2.79689   2.82784   2.82985   2.85374
 Alpha virt. eigenvalues --    2.88499   2.89159   2.92024   2.92564   2.93242
 Alpha virt. eigenvalues --    2.94918   2.95911   2.97567   2.98241   3.00360
 Alpha virt. eigenvalues --    3.01296   3.01711   3.02816   3.05544   3.07109
 Alpha virt. eigenvalues --    3.07503   3.08674   3.09301   3.11093   3.12705
 Alpha virt. eigenvalues --    3.13739   3.14770   3.15658   3.20283   3.21564
 Alpha virt. eigenvalues --    3.24927   3.27957   3.31106   3.35808   3.38886
 Alpha virt. eigenvalues --    3.49061   3.61342   3.65673   3.67247   3.67556
 Alpha virt. eigenvalues --    3.67901   3.68784   3.70694   3.71156   3.71629
 Alpha virt. eigenvalues --    3.72321   3.77493   3.82837   3.85947   3.90388
 Alpha virt. eigenvalues --    3.93459   3.95345   3.96736   3.99509   4.02380
 Alpha virt. eigenvalues --    4.04219   4.07289   4.09059   4.09751   4.13085
 Alpha virt. eigenvalues --    4.19884   4.25497   4.94798   4.96073   5.02638
 Alpha virt. eigenvalues --    5.03215   5.04409   5.05881   5.13723   5.21288
 Alpha virt. eigenvalues --    5.27510   5.31509   5.33188   5.33825   5.47280
 Alpha virt. eigenvalues --    5.58422   5.59630   5.60471   5.63859   5.81334
 Alpha virt. eigenvalues --   23.68428  23.72637  23.76220  23.77792  23.80540
 Alpha virt. eigenvalues --   23.82486  23.88454  23.89669  23.90090  23.90904
 Alpha virt. eigenvalues --   23.91240  49.89138  49.90200  49.94885  49.96139
 Alpha virt. eigenvalues --   49.97803  50.01394
          Condensed to atoms (all electrons):
               1          2          3          4          5          6
     1  C   11.976037  -5.793244   0.296038  -0.225306  -1.896945   1.656958
     2  C   -5.793244  18.948112  -5.350282   0.467311   1.347413  -2.626962
     3  C    0.296038  -5.350282  18.576270 -10.505670   3.964037  -2.192727
     4  C   -0.225306   0.467311 -10.505670  23.270849 -11.169461   5.401633
     5  C   -1.896945   1.347413   3.964037 -11.169461  23.397179 -10.707081
     6  C    1.656958  -2.626962  -2.192727   5.401633 -10.707081  15.461696
     7  O   -0.026911  -0.059066  -0.151603   0.176844  -0.078725   0.236502
     8  O   -0.005776   0.112885   0.041919  -0.039292  -0.016213  -0.091967
     9  O    0.151245  -0.221156  -0.170665   0.347562  -0.436137   0.419096
    10  O   -0.230144   0.200274  -0.017087   0.070920  -0.012443   0.019609
    11  H    0.387154  -0.092775   0.064304  -0.004160   0.008728  -0.011776
    12  H    0.264706   0.117367  -0.080807   0.023535  -0.001855  -0.000521
    13  H    0.038452   0.149559   0.012220   0.035570  -0.008575   0.026109
    14  H    0.009507  -0.086821   0.392554   0.015334   0.007602  -0.011497
    15  H    0.015269   0.032572   0.067955   0.351184  -0.153736   0.027115
    16  H    0.017903   0.006898   0.016874   0.042384   0.130965   0.102470
    17  H   -0.027662  -0.016778   0.058285  -0.067476   0.141273   0.262128
    18  O    0.091533   0.060733  -0.007484  -0.119860   0.028695   0.049414
    19  C    0.048023  -0.290144   0.072720  -0.044108   0.008167  -0.001516
    20  H    0.030448  -0.002298  -0.003716   0.000930  -0.000329   0.000063
    21  H   -0.011818  -0.009593   0.006619  -0.000783   0.000484   0.000640
    22  H   -0.005323   0.001068  -0.003430   0.000973  -0.000118  -0.000469
    23  C    0.022378   0.003606   0.037896  -0.159760  -0.224200   0.052443
    24  H   -0.000152   0.001120   0.004693  -0.024678  -0.005021   0.017249
    25  H    0.000916  -0.000744  -0.003323   0.044992  -0.056967   0.010532
    26  H    0.000146  -0.001200  -0.001804   0.001504   0.024723   0.001044
    27  C   -0.003106  -0.022930  -0.278190  -0.040324   0.096525  -0.026050
    28  H    0.001241  -0.002473   0.058367  -0.039552  -0.019677  -0.003519
    29  H    0.000137   0.003173  -0.021967  -0.093993   0.068407   0.011808
    30  H   -0.000271   0.000695  -0.008268   0.070418  -0.013638   0.000066
    31  C   -0.296799   0.152318   0.151093  -0.652759   1.167371  -1.269551
    32  O   -0.001138   0.251827   0.041682  -0.176733  -0.218772   0.307322
    33  C   -0.105547  -0.481586   0.598687  -0.216985   0.619551  -0.667697
    34  H    0.000955  -0.002346   0.001452   0.000454  -0.008979   0.002036
    35  H    0.004435  -0.007786   0.003616  -0.003133  -0.002478   0.003546
    36  H   -0.001669   0.002297  -0.008292   0.005796   0.003263  -0.002311
               7          8          9         10         11         12
     1  C   -0.026911  -0.005776   0.151245  -0.230144   0.387154   0.264706
     2  C   -0.059066   0.112885  -0.221156   0.200274  -0.092775   0.117367
     3  C   -0.151603   0.041919  -0.170665  -0.017087   0.064304  -0.080807
     4  C    0.176844  -0.039292   0.347562   0.070920  -0.004160   0.023535
     5  C   -0.078725  -0.016213  -0.436137  -0.012443   0.008728  -0.001855
     6  C    0.236502  -0.091967   0.419096   0.019609  -0.011776  -0.000521
     7  O    7.807306  -0.005344   0.051872   0.017837  -0.002766   0.010336
     8  O   -0.005344   7.982754   0.019508  -0.001039   0.000083  -0.000179
     9  O    0.051872   0.019508   7.887324   0.005080  -0.002414   0.015439
    10  O    0.017837  -0.001039   0.005080   8.112959  -0.039730  -0.046106
    11  H   -0.002766   0.000083  -0.002414  -0.039730   0.515497  -0.045046
    12  H    0.010336  -0.000179   0.015439  -0.046106  -0.045046   0.531206
    13  H   -0.009533  -0.002420   0.012080   0.002125  -0.008667   0.005464
    14  H    0.006654  -0.004630  -0.045161   0.010251  -0.000066   0.001055
    15  H   -0.000298  -0.032208   0.004828  -0.000151  -0.000044   0.000046
    16  H    0.007503   0.005181   0.004488   0.000031  -0.000005   0.000006
    17  H   -0.062533  -0.000080  -0.006407   0.000078   0.000116   0.000029
    18  O    0.011183   0.006583  -0.000017  -0.000486  -0.000033  -0.000128
    19  C    0.004166  -0.000287  -0.000415   0.113540  -0.000613  -0.004034
    20  H    0.000125  -0.000002   0.000077  -0.053665  -0.000184  -0.000302
    21  H    0.000275  -0.000003   0.000315  -0.039541  -0.003774   0.011606
    22  H   -0.000186  -0.000000  -0.000088  -0.045949   0.011115  -0.003892
    23  C    0.006319   0.009472   0.001631  -0.000140  -0.000759   0.000134
    24  H   -0.000128  -0.000159  -0.000085   0.000005   0.000008   0.000000
    25  H    0.000304   0.000376   0.000068   0.000001  -0.000000   0.000000
    26  H   -0.000407   0.000027   0.000009   0.000001   0.000000  -0.000000
    27  C    0.004594   0.112737   0.004745   0.000581  -0.000003   0.000183
    28  H   -0.000002  -0.044007  -0.000194   0.000002  -0.000000  -0.000000
    29  H   -0.000105  -0.019770   0.000070   0.000000   0.000000  -0.000000
    30  H   -0.000013  -0.074672  -0.000382  -0.000003   0.000000  -0.000000
    31  C    0.005641   0.077217   0.300795  -0.004406   0.005976   0.010936
    32  O   -0.083609   0.032512  -0.104310  -0.002417   0.000300  -0.001782
    33  C    0.007399  -0.099528  -0.481967   0.002456   0.001149  -0.010123
    34  H    0.000208  -0.001266  -0.001285   0.000008  -0.000000  -0.000006
    35  H    0.000118   0.000665  -0.014038   0.000052   0.000001   0.000049
    36  H   -0.000314   0.000163   0.016353   0.000003   0.000001  -0.000029
              13         14         15         16         17         18
     1  C    0.038452   0.009507   0.015269   0.017903  -0.027662   0.091533
     2  C    0.149559  -0.086821   0.032572   0.006898  -0.016778   0.060733
     3  C    0.012220   0.392554   0.067955   0.016874   0.058285  -0.007484
     4  C    0.035570   0.015334   0.351184   0.042384  -0.067476  -0.119860
     5  C   -0.008575   0.007602  -0.153736   0.130965   0.141273   0.028695
     6  C    0.026109  -0.011497   0.027115   0.102470   0.262128   0.049414
     7  O   -0.009533   0.006654  -0.000298   0.007503  -0.062533   0.011183
     8  O   -0.002420  -0.004630  -0.032208   0.005181  -0.000080   0.006583
     9  O    0.012080  -0.045161   0.004828   0.004488  -0.006407  -0.000017
    10  O    0.002125   0.010251  -0.000151   0.000031   0.000078  -0.000486
    11  H   -0.008667  -0.000066  -0.000044  -0.000005   0.000116  -0.000033
    12  H    0.005464   0.001055   0.000046   0.000006   0.000029  -0.000128
    13  H    0.432243   0.001512   0.000426  -0.000219   0.000476  -0.006198
    14  H    0.001512   0.383915  -0.005795  -0.000018   0.000067  -0.001414
    15  H    0.000426  -0.005795   0.424562   0.001419  -0.000186   0.003885
    16  H   -0.000219  -0.000018   0.001419   0.489647  -0.007336  -0.029103
    17  H    0.000476   0.000067  -0.000186  -0.007336   0.445504  -0.008180
    18  O   -0.006198  -0.001414   0.003885  -0.029103  -0.008180   7.880338
    19  C    0.002665  -0.000368  -0.000011  -0.000013   0.000056  -0.000075
    20  H    0.000048   0.000026  -0.000002   0.000000   0.000000  -0.000001
    21  H    0.000068   0.000163   0.000000  -0.000000  -0.000000  -0.000001
    22  H   -0.000089  -0.000051  -0.000001  -0.000000   0.000000   0.000001
    23  C   -0.001593  -0.000308   0.008205   0.005042  -0.007609   0.158601
    24  H    0.000078  -0.000001  -0.000004  -0.004135   0.001173  -0.041299
    25  H    0.000009  -0.000002   0.000097   0.014740  -0.000662  -0.033066
    26  H   -0.000032  -0.000001  -0.000112   0.000096  -0.000218  -0.056036
    27  C    0.001511   0.001971  -0.000665   0.008300   0.000170  -0.005584
    28  H    0.000015  -0.000250   0.011867  -0.000104  -0.000006   0.001735
    29  H   -0.000013   0.000065  -0.002007   0.006932   0.000027  -0.003845
    30  H   -0.000004  -0.000040  -0.000290  -0.000616  -0.000003   0.000047
    31  C    0.017130   0.031504  -0.015275  -0.038552   0.061399  -0.041420
    32  O   -0.006386  -0.003695   0.002456   0.017747  -0.068743   0.022733
    33  C    0.006071   0.010939  -0.004422  -0.035434   0.026768  -0.005963
    34  H    0.000000  -0.000001  -0.000007   0.000097  -0.000001   0.000009
    35  H    0.000010   0.000031   0.000002   0.000002   0.000018   0.000000
    36  H   -0.000003   0.000011   0.000001   0.000011  -0.000018  -0.000002
              19         20         21         22         23         24
     1  C    0.048023   0.030448  -0.011818  -0.005323   0.022378  -0.000152
     2  C   -0.290144  -0.002298  -0.009593   0.001068   0.003606   0.001120
     3  C    0.072720  -0.003716   0.006619  -0.003430   0.037896   0.004693
     4  C   -0.044108   0.000930  -0.000783   0.000973  -0.159760  -0.024678
     5  C    0.008167  -0.000329   0.000484  -0.000118  -0.224200  -0.005021
     6  C   -0.001516   0.000063   0.000640  -0.000469   0.052443   0.017249
     7  O    0.004166   0.000125   0.000275  -0.000186   0.006319  -0.000128
     8  O   -0.000287  -0.000002  -0.000003  -0.000000   0.009472  -0.000159
     9  O   -0.000415   0.000077   0.000315  -0.000088   0.001631  -0.000085
    10  O    0.113540  -0.053665  -0.039541  -0.045949  -0.000140   0.000005
    11  H   -0.000613  -0.000184  -0.003774   0.011115  -0.000759   0.000008
    12  H   -0.004034  -0.000302   0.011606  -0.003892   0.000134   0.000000
    13  H    0.002665   0.000048   0.000068  -0.000089  -0.001593   0.000078
    14  H   -0.000368   0.000026   0.000163  -0.000051  -0.000308  -0.000001
    15  H   -0.000011  -0.000002   0.000000  -0.000001   0.008205  -0.000004
    16  H   -0.000013   0.000000  -0.000000  -0.000000   0.005042  -0.004135
    17  H    0.000056   0.000000  -0.000000   0.000000  -0.007609   0.001173
    18  O   -0.000075  -0.000001  -0.000001   0.000001   0.158601  -0.041299
    19  C    5.122975   0.402929   0.416500   0.416588   0.000137   0.000007
    20  H    0.402929   0.480694  -0.023071  -0.020684  -0.000003  -0.000000
    21  H    0.416500  -0.023071   0.532982  -0.043123   0.000004  -0.000000
    22  H    0.416588  -0.020684  -0.043123   0.522431  -0.000006   0.000000
    23  C    0.000137  -0.000003   0.000004  -0.000006   5.187516   0.410923
    24  H    0.000007  -0.000000  -0.000000   0.000000   0.410923   0.528143
    25  H   -0.000000   0.000000   0.000000  -0.000000   0.395123  -0.040800
    26  H   -0.000002   0.000000  -0.000000   0.000000   0.410219  -0.022293
    27  C   -0.000141   0.000006   0.000005  -0.000002   0.002940  -0.000526
    28  H    0.000006  -0.000000  -0.000000   0.000000   0.001313   0.000002
    29  H    0.000000   0.000000  -0.000000   0.000000  -0.002371  -0.000020
    30  H   -0.000001  -0.000000  -0.000000   0.000000   0.000083   0.000000
    31  C    0.002987   0.000142  -0.000347   0.000687  -0.023845   0.002450
    32  O   -0.000886  -0.000002   0.000013  -0.000006   0.000309  -0.001195
    33  C    0.007897   0.000055  -0.001620   0.000291  -0.002712   0.000673
    34  H   -0.000005  -0.000000  -0.000000  -0.000000  -0.000055   0.000000
    35  H    0.000137   0.000000  -0.000004   0.000000  -0.000005  -0.000000
    36  H   -0.000022   0.000000  -0.000000   0.000000   0.000031  -0.000000
              25         26         27         28         29         30
     1  C    0.000916   0.000146  -0.003106   0.001241   0.000137  -0.000271
     2  C   -0.000744  -0.001200  -0.022930  -0.002473   0.003173   0.000695
     3  C   -0.003323  -0.001804  -0.278190   0.058367  -0.021967  -0.008268
     4  C    0.044992   0.001504  -0.040324  -0.039552  -0.093993   0.070418
     5  C   -0.056967   0.024723   0.096525  -0.019677   0.068407  -0.013638
     6  C    0.010532   0.001044  -0.026050  -0.003519   0.011808   0.000066
     7  O    0.000304  -0.000407   0.004594  -0.000002  -0.000105  -0.000013
     8  O    0.000376   0.000027   0.112737  -0.044007  -0.019770  -0.074672
     9  O    0.000068   0.000009   0.004745  -0.000194   0.000070  -0.000382
    10  O    0.000001   0.000001   0.000581   0.000002   0.000000  -0.000003
    11  H   -0.000000   0.000000  -0.000003  -0.000000   0.000000   0.000000
    12  H    0.000000  -0.000000   0.000183  -0.000000  -0.000000  -0.000000
    13  H    0.000009  -0.000032   0.001511   0.000015  -0.000013  -0.000004
    14  H   -0.000002  -0.000001   0.001971  -0.000250   0.000065  -0.000040
    15  H    0.000097  -0.000112  -0.000665   0.011867  -0.002007  -0.000290
    16  H    0.014740   0.000096   0.008300  -0.000104   0.006932  -0.000616
[...]
 0138329,-0.00224589,0.00026284,-0.00023634,0.00024005,0.00000640,0.000
 01493,0.00000202,0.00001995,0.00006141,-0.00001539,-0.00006180,-0.0000
 0743,-0.00005163,-0.00015722,0.00018901,0.00022489,-0.00004403,-0.0001
 8678,-0.00006981,0.00002270,0.00000309,0.00001565,0.00000193,-0.000094
 34,-0.00002411,-0.00350817,0.00010419,-0.00308924,0.00016928,-0.000313
 00,0.00108474,0.00033943,-0.00041703,0.00057196,0.00012778,0.00000156,
 0.00009136,-0.17680128,-0.04328632,0.30270148,0.00071069,-0.00076756,0
 .00074298,0.00406534,-0.00701275,-0.00094015,0.00337702,0.00232141,-0.
 00494238,-0.00187531,-0.00015218,-0.00208146,-0.00775196,-0.01486409,0
 .00693640,-0.05597121,0.01736845,0.01261632,-0.05544830,-0.02457281,-0
 .01071106,0.00238760,-0.00020603,0.00051085,-0.01742256,0.06580026,0.0
 0854679,-0.00136457,0.00110135,-0.00052687,0.00004981,0.00000396,0.000
 18398,0.00001527,0.00010167,0.00017765,-0.00119765,0.00111091,0.000699
 75,0.00041124,-0.00013971,0.00035896,0.00052188,-0.00025898,-0.0002937
 0,0.00090054,-0.00027286,0.00139741,0.00270741,0.00018759,0.00064695,0
 .00176018,-0.00094112,0.00258646,0.00066020,-0.00042100,0.00071740,-0.
 00009524,0.00007368,-0.00002196,0.00000013,0.00005993,-0.00012736,-0.0
 0004821,-0.00002817,-0.00010452,-0.00040980,0.00135567,0.00050957,-0.0
 0006810,0.00005975,-0.00032129,0.00014671,-0.00017523,0.00013382,0.000
 07735,-0.00023894,-0.00012895,-0.00003676,0.00014548,-0.00004460,0.000
 05691,-0.00003332,-0.00008347,-0.00008722,-0.00011006,0.00012604,0.000
 00983,0.00008647,0.00015152,-0.14602439,0.06761937,0.01908251,0.258000
 69,-0.00053265,-0.00104999,0.00223948,0.01069058,-0.01023171,-0.010004
 43,-0.02137938,-0.01004077,0.01434923,0.00388067,-0.00349728,-0.004256
 82,-0.01252000,-0.01924883,-0.00470063,0.05445336,-0.03771191,0.014789
 15,-0.05050877,0.01485330,-0.01791944,0.00118140,0.00379055,0.00001704
 ,0.07758208,-0.04570948,-0.02186814,-0.00097513,0.00213555,-0.00046151
 ,0.00083941,0.00021516,0.00023117,-0.00011911,-0.00002870,-0.00088784,
 -0.00066652,0.00286802,0.00274919,0.00116216,0.00247199,-0.00132744,-0
 .00161392,0.00144899,-0.00090994,-0.00025083,0.00042101,-0.00025528,-0
 .02793386,-0.03281083,0.01447765,-0.00361184,-0.00169019,0.00986858,-0
 .00013101,-0.00018089,0.00063421,-0.00016355,0.00006117,-0.00008513,-0
 .00001507,0.00004991,-0.00022413,0.00009690,0.00006987,0.00000302,-0.0
 0118493,0.00329004,-0.00018795,0.00061839,0.00085994,-0.00009594,0.000
 25199,-0.00015037,-0.00013571,-0.00006340,-0.00009190,0.00029064,0.001
 13474,-0.00039643,0.00081541,-0.00012027,0.00010267,-0.00019935,-0.000
 36579,0.00038874,-0.00046554,-0.00000808,0.00004189,0.00012175,0.04711
 630,-0.42799031,0.02002571,-0.07603599,0.61489013,0.00018644,-0.000079
 78,-0.00012553,0.00079945,-0.00168502,-0.00083992,-0.00269148,-0.00020
 889,-0.00186956,-0.00313095,0.00130588,0.00146616,0.01985077,0.0281060
 3,-0.00160224,0.00944096,0.00178240,-0.06220708,-0.01286262,-0.0112423
 7,0.00926441,0.00159632,-0.00174744,-0.00392669,0.00910411,-0.01413005
 ,0.02939353,-0.00016606,0.00012296,0.00013154,0.00007259,0.00004054,0.
 00000135,0.00011101,-0.00002771,0.00000583,-0.00059467,0.00021330,0.00
 000302,-0.00012790,-0.00039913,0.00052236,-0.00005550,0.00042608,0.000
 54023,-0.00019391,-0.00034610,0.00079025,-0.00495724,-0.00660594,0.005
 29533,0.00343790,0.00400053,-0.00917544,0.00003129,0.00002962,-0.00001
 237,-0.00000574,0.00001038,-0.00000084,-0.00001487,-0.00001405,0.00000
 084,0.00001086,-0.00000879,-0.00000980,0.00098106,-0.00379733,-0.00119
 586,-0.00029384,0.00013813,0.00076115,-0.00018460,0.00032998,0.0000262
 6,-0.00017781,0.00051160,0.00016353,0.00102898,-0.00026944,0.00071032,
 -0.00010253,0.00008470,-0.00038905,-0.00002954,-0.00001381,0.00008656,
 -0.00003316,-0.00000119,-0.00005136,0.01971101,0.00975978,-0.07401862,
 -0.04157588,-0.02149373,0.09656445,0.00023034,-0.00012505,0.00005918,-
 0.00102549,0.00056804,0.00136781,0.00373882,0.00426308,-0.00322715,-0.
 00153213,-0.00038882,0.00022175,-0.00039590,0.00013500,0.00026428,-0.0
 0180866,0.00218503,0.00248369,0.00266544,-0.00055308,0.00030215,0.0005
 4386,0.00013362,0.00015296,-0.04521228,-0.01828561,0.02316441,-0.00031
 555,0.00012302,-0.00019964,-0.00010493,0.00001802,-0.00005188,0.000020
 60,0.00003783,0.00006728,-0.00011508,-0.00034802,-0.00041638,-0.000500
 58,-0.00071435,0.00052688,0.00042877,-0.00023321,0.00022254,0.00005375
 ,-0.00011181,-0.00009378,0.00062977,0.00079107,-0.00043322,-0.00000683
 ,-0.00038340,0.00009365,0.00021191,-0.00017552,0.00018459,-0.00001642,
 0.00001405,0.00000503,0.00000461,0.00001334,-0.00003898,-0.00002612,0.
 00000091,-0.00004165,-0.00006195,0.00024909,0.00000670,0.00000435,-0.0
 0005814,-0.00004025,0.00002347,-0.00002017,0.00000549,0.00000429,-0.00
 003147,-0.00001343,-0.00015161,0.00004824,-0.00036409,0.00000815,-0.00
 001943,0.00001467,-0.00000368,-0.00004940,0.00005606,0.00001717,0.0000
 2601,0.00007223,-0.15368720,-0.06967804,0.03273318,0.01429699,0.001721
 33,0.00086213,0.55858459,0.00016664,-0.00007122,-0.00002374,0.00180737
 ,-0.00067730,-0.00167296,0.00443507,0.00062883,0.00190142,-0.00043949,
 -0.00098885,0.00026357,-0.00041706,-0.00062018,-0.00102327,0.00978784,
 0.00592371,-0.00029775,-0.00422645,0.00084042,-0.00110830,-0.00007934,
 0.00051326,0.00023526,0.00561573,0.01418289,-0.00489834,-0.00035875,0.
 00025766,-0.00005823,0.00000290,-0.00000747,0.00005222,-0.00000006,-0.
 00001742,0.00008486,-0.00002759,0.00034304,0.00042664,0.00039094,0.000
 35639,-0.00021628,0.00001776,-0.00007452,0.00006995,-0.00002014,0.0000
 7851,-0.00001362,-0.00070812,-0.00077778,0.00052554,-0.00048645,-0.000
 70239,0.00094394,0.00013573,-0.00007335,0.00016343,-0.00002950,0.00001
 566,-0.00000440,0.00000423,0.00000347,-0.00002739,-0.00000513,-0.00000
 629,-0.00001868,-0.00018400,0.00046781,-0.00004598,0.00007247,0.000033
 77,-0.00000550,0.00004379,-0.00001862,-0.00001011,-0.00000989,-0.00002
 822,0.00002735,-0.00011589,-0.00001546,-0.00029575,-0.00002141,-0.0000
 2008,0.00003659,-0.00002189,0.00002481,-0.00001681,0.00002819,-0.00000
 337,0.00003243,-0.06739453,-0.14000370,0.03401814,-0.02595155,-0.05289
 870,0.01169321,-0.06060239,0.56269454,0.00006818,0.00004643,-0.0002728
 0,0.00121433,0.00109923,-0.00093140,0.00254033,0.00159412,0.00602770,-
 0.00089655,-0.00072597,0.00071067,-0.00095382,-0.00082738,-0.00056085,
 0.00093308,0.00026814,0.00640435,0.00150660,0.00016362,-0.00006803,0.0
 0012401,0.00018560,-0.00009111,0.01790997,0.00613717,0.00120893,-0.000
 07481,0.00006195,0.00007354,-0.00000643,-0.00000712,0.00001970,-0.0000
 1890,-0.00008451,0.00003937,0.00010606,0.00022920,0.00030313,-0.000154
 05,-0.00030420,0.00027285,0.00029038,-0.00009944,0.00012621,0.00003413
 ,0.00000255,-0.00012019,0.00029778,0.00041584,-0.00029933,-0.00045189,
 -0.00044236,0.00073583,0.00002258,-0.00001992,0.00002353,-0.00000608,-
 0.00000036,0.00000354,-0.00000070,-0.00001102,-0.00001281,0.00000443,0
 .00000306,-0.00000327,-0.00008821,0.00033172,0.00000993,0.00003796,-0.
 00002157,-0.00005660,0.00001622,-0.00002209,0.00000026,0.00001422,-0.0
 0003373,-0.00000454,0.00001486,0.00003291,0.00001648,-0.00000686,-0.00
 001041,-0.00000884,-0.00002305,0.00001109,-0.00000395,0.00000584,0.000
 01384,0.00001219,0.03784302,0.04214387,-0.10569720,0.00624806,0.000087
 23,0.00992567,-0.02598079,0.00430669,0.55294883,0.00001969,-0.00000042
 ,-0.00005002,0.00021892,0.00018999,-0.00011807,0.00046197,0.00048559,0
 .00116749,-0.00067992,-0.00036446,-0.00010351,-0.00005125,-0.00012406,
 -0.00001379,0.00000770,-0.00007742,0.00066590,0.00016170,0.00003077,-0
 .00000381,0.00026600,0.00045399,-0.00037036,-0.00015574,-0.00082338,0.
 00212752,-0.00000491,0.00002363,0.00002095,-0.00000596,-0.00000134,0.0
 0000560,0.00000866,-0.00000898,0.00001607,0.00001054,0.00002455,0.0000
 2989,-0.00011785,-0.00014862,0.00011826,0.00016696,-0.00000671,0.00006
 488,0.00001976,-0.00001124,-0.00002301,0.00003212,0.00002675,-0.000015
 20,-0.00004373,0.00005145,0.00009277,-0.00000571,-0.00000603,-0.000001
 25,-0.00000472,-0.00000145,-0.00000048,0.00000060,-0.00000204,-0.00000
 530,0.00000105,0.00000446,0.00000071,0.00001679,-0.00000424,-0.0000080
 9,0.00000232,0.00000164,-0.00000297,-0.00000257,-0.00000263,-0.0000024
 6,0.00000003,0.00000310,-0.00000071,0.00022398,0.00001631,0.00032641,-
 0.00001651,0.00000509,-0.00007820,-0.00001901,0.00006143,-0.00005632,0
 .00003137,-0.00003689,0.00002289,-0.01459781,-0.00828420,-0.02217596,0
 .00027801,0.00054792,0.00085457,-0.09621464,-0.04682479,-0.09938093,0.
 10448617,-0.00007008,0.00003139,0.00003858,0.00014487,0.00010249,-0.00
 005140,-0.00029912,0.00001602,0.00052857,-0.00031464,-0.00027674,-0.00
 014722,-0.00035555,-0.00031830,-0.00026029,0.00037002,-0.00008075,0.00
 163582,0.00028841,0.00014089,-0.00004480,0.00050435,0.00011419,-0.0003
 6429,0.00251855,-0.00024844,0.00019081,0.00006594,-0.00004583,0.000003
 05,0.00001600,0.00000011,-0.00000340,-0.00000583,-0.00000558,-0.000020
 27,-0.00000505,0.00001730,0.00002212,-0.00001705,-0.00001693,0.0000463
 5,0.00009146,0.00006103,0.00000920,0.00003393,-0.00003137,0.00001119,0
 .00002054,0.00004443,-0.00004472,-0.00004921,-0.00000388,0.00025973,-0
 .00003569,0.00002251,-0.00002669,0.00000755,-0.00000064,-0.00000249,-0
 .00000164,0.00000220,0.00000821,0.00000285,-0.00000152,0.00000500,-0.0
 0001811,0.00003358,-0.00001683,0.00000552,0.00000371,-0.00000744,0.000
 00202,-0.00000795,0.00000580,0.00000636,-0.00000162,-0.00000030,0.0001
 2190,0.00001451,0.00027543,0.00003367,0.00002395,-0.00006731,-0.000037
 31,-0.00001138,-0.00002012,-0.00003563,0.00005262,0.00004506,-0.012851
 36,-0.01191454,-0.02062715,-0.00064815,-0.00148014,0.00234420,-0.04651
 734,-0.07247333,-0.08176177,0.05178819,0.08150667,-0.00007402,0.000029
 57,-0.00002760,-0.00018011,0.00001594,0.00000392,-0.00098578,-0.000812
 54,-0.00016270,0.00067349,0.00042588,0.00016948,0.00012867,0.00003174,
 0.00019456,-0.00092146,-0.00084908,-0.00057231,0.00025148,0.00004674,0
 .00005127,-0.00041634,-0.00040440,-0.00013364,0.00257551,0.00007753,-0
 .00132307,0.00012476,-0.00006678,0.00005293,0.00001979,-0.00000006,-0.
 00000084,-0.00000184,0.00000431,-0.00003790,0.00002894,0.00002031,0.00
 002182,0.00007268,0.00011287,-0.00010216,-0.00015481,0.00005747,-0.000
 09093,-0.00001490,0.00003035,0.00002610,0.00000910,-0.00000114,-0.0000
 2787,0.00009479,0.00016418,-0.00024432,-0.00006246,0.00004970,-0.00006
 623,0.00000811,-0.00000667,0.00000207,-0.00000140,-0.00000600,0.000011
 57,0.00000666,0.00000077,0.00001136,0.00004069,-0.00011531,0.00002382,
 -0.00001243,-0.00000003,0.00000269,-0.00001338,0.00000764,0.00000263,0
 .00000306,0.00000622,-0.00000271,0.00010000,0.00007836,0.00004663,-0.0
 0003347,-0.00001069,-0.00000012,0.00000404,-0.00002621,-0.00000572,-0.
 00002511,-0.00000817,-0.00011711,0.00248328,0.00003819,0.01111010,-0.0
 0048268,0.00359586,-0.00106291,-0.09721939,-0.07878657,-0.22314513,0.1
 0889644,0.08722970,0.23977676,-0.00005771,-0.00009710,0.00017400,0.000
 24701,-0.00026120,-0.00021808,0.00032833,-0.00007426,0.00001015,-0.000
 02670,-0.00010644,-0.00005666,0.00000739,0.00001111,-0.00022324,0.0016
 7022,0.00023791,-0.00065256,-0.00101526,0.00028179,-0.00023927,0.00002
 344,0.00009499,0.00003023,-0.00137259,0.00024766,-0.00082757,0.0000113
 0,0.00008122,-0.00006446,0.00002639,0.00003073,-0.00002001,0.00002326,
 0.00000709,-0.00005816,-0.00002111,0.00004971,0.00003362,0.00006230,0.
 00007099,-0.00001477,-0.00000943,0.00000125,0.00000784,-0.00001631,0.0
 0000071,0.00001948,-0.00025451,-0.00028205,0.00016235,-0.00005419,-0.0
 0008007,0.00012993,-0.00002872,-0.00003711,0.00004588,-0.00000502,0.00
 000304,-0.00000608,-0.00000392,0.00000940,-0.00002516,0.00000682,0.000
 01430,-0.00000528,-0.00003086,0.00004338,-0.00002249,0.00001049,0.0000
 1025,0.00000965,0.00000515,-0.00000159,-0.00000006,-0.00000113,-0.0000
 0078,0.00000806,-0.00004003,-0.00000786,-0.00003457,0.00000731,-0.0000
 0137,0.00001190,-0.00000758,-0.00000485,0.00000422,-0.00000348,0.00001
 138,0.00001479,0.01396924,-0.01798041,0.01361759,-0.00418948,-0.005677
 08,0.00051961,-0.10403110,0.10018808,-0.05566250,-0.00635764,0.0119441
 6,-0.00575364,0.10811360,-0.00017230,-0.00000800,0.00019306,0.00018332
 ,-0.00023198,-0.00019931,-0.00116824,-0.00038769,0.00002754,0.00037491
 ,0.00005830,-0.00016350,-0.00003936,-0.00020182,-0.00013481,0.00137385
 ,0.00042034,0.00010848,-0.00079613,0.00023286,-0.00027356,-0.00001920,
 0.00001427,-0.00013730,0.00283952,0.00111894,-0.00238087,0.00016254,-0
 .00007144,-0.00003196,0.00004384,0.00001644,-0.00001760,-0.00000898,0.
 00002884,-0.00007361,0.00000995,0.00006061,0.00006004,0.00005461,0.000
 09744,-0.00005637,-0.00009579,0.00008248,-0.00007157,-0.00000547,0.000
 01792,0.00002377,-0.00014454,-0.00016371,0.00010512,-0.00003835,0.0000
 4702,0.00009415,-0.00008621,0.00005057,-0.00005960,0.00001220,-0.00000
 142,-0.00000630,-0.00000188,0.00000794,0.00001572,0.00000656,-0.000002
 15,0.00001319,0.00000324,-0.00002388,0.00000155,0.00000331,0.00001449,
 0.00000331,-0.00000418,0.00000160,-0.00000116,0.00000020,0.00000432,0.
 00000286,0.00005490,-0.00001673,0.00012184,0.00000789,0.00001298,-0.00
 001404,-0.00000682,0.00000734,-0.00001649,-0.00001444,0.00000589,-0.00
 000064,0.00949713,-0.01979248,0.01058634,-0.00423276,-0.00283009,0.001
 47319,0.09621708,-0.20775879,0.10347695,-0.00510980,0.00994318,-0.0063
 5602,-0.10147357,0.22668037,-0.00008791,0.00000221,0.00008165,-0.00010
 109,0.00009649,0.00016429,0.00003448,-0.00001158,-0.00009526,-0.000065
 07,0.00004573,-0.00000782,-0.00002116,-0.00007530,0.00001298,-0.000694
 65,-0.00046542,0.00062730,0.00034869,0.00001244,-0.00004406,0.00013706
 ,-0.00009322,-0.00009992,0.00113947,-0.00076948,0.00075971,0.00003009,
 -0.00005110,-0.00007068,-0.00000650,-0.00000051,-0.00001290,0.00001859
 ,0.00002942,-0.00000364,-0.00001065,-0.00003479,-0.00004884,0.00000652
 ,-0.00000127,0.00001278,0.00002035,0.00002379,0.00000928,0.00001184,-0
 .00001596,0.00001055,0.00009776,0.00008401,-0.00006927,0.00001563,0.00
 002362,-0.00001377,0.00000018,-0.00001461,0.00001727,0.00000991,0.0000
 0303,-0.00000363,0.00000293,0.00001219,0.00000668,-0.00000407,-0.00000
 433,-0.00000184,0.00000736,-0.00000647,0.00001622,-0.00000149,-0.00000
 137,-0.00000727,-0.00000306,-0.00000051,-0.00000033,0.00000046,0.00000
 028,-0.00000191,0.00003901,0.00000261,0.00006405,0.00000753,0.00001422
 ,-0.00002313,-0.00000198,-0.00001264,-0.00000154,-0.00001820,0.0000137
 3,0.00000372,-0.00823320,0.00324219,-0.00673665,0.00090327,0.00120002,
 0.00034032,-0.05132121,0.10417257,-0.10438659,-0.00983282,0.02014969,-
 0.01152145,0.06106440,-0.11194338,0.10982591,-0.00003457,-0.00002320,0
 .00006571,-0.00041089,0.00006961,0.00042317,0.00015021,0.00044874,-0.0
 0078901,-0.00021116,0.00007978,-0.00004693,0.00015352,0.00018355,0.000
 20881,-0.00101740,-0.00089448,-0.00055019,0.00055271,-0.00010174,0.000
 04804,0.00010094,0.00001220,-0.00006439,-0.00347225,-0.00362529,0.0035
 0036,0.00004261,-0.00003516,-0.00005352,-0.00001838,0.00000452,-0.0000
 1685,0.00001234,0.00004215,-0.00000831,-0.00000545,-0.00008086,-0.0001
 3843,-0.00012850,-0.00013578,0.00009150,0.00006879,-0.00002483,0.00003
 376,0.00000737,-0.00002352,-0.00000493,0.00003041,-0.00001124,0.000007
 94,0.00010698,0.00011712,-0.00020358,-0.00000588,-0.00001175,-0.000004
 16,0.00000355,-0.00000082,-0.00000090,0.00000109,0.00000609,0.00000115
 ,-0.00000417,0.00000125,-0.00000086,0.00003529,-0.00007402,0.00001086,
 -0.00001045,-0.00000705,0.00000060,-0.00000757,0.00000265,-0.00000089,
 -0.00000022,0.00000544,-0.00000363,0.00003333,-0.00000694,0.00005618,-
 0.00000014,0.00000200,-0.00001433,0.00000588,0.00000764,-0.00000177,0.
 00000775,-0.00001173,0.00001143,-0.01721655,0.01176115,0.01214472,0.00
 155696,0.00259994,-0.00140075,-0.17625675,0.08522769,0.11447352,0.0118
 6361,-0.00670449,-0.00916827,-0.00698551,0.00257295,0.00650753,0.19105
 246,0.00004314,-0.00004018,0.00004239,-0.00036713,0.00003738,0.0004499
 7,-0.00042274,0.00036812,-0.00100871,-0.00012646,0.00008700,-0.0001500
 9,0.00000684,0.00009082,0.00002560,-0.00047345,-0.00009548,-0.00005493
 ,0.00040073,-0.00012291,-0.00001490,0.00012237,0.00002045,0.00008169,-
 0.00576903,-0.00253239,0.00215234,-0.00003443,0.00002672,-0.00003660,-
 0.00002092,0.00000713,-0.00001266,0.00000393,0.00000907,0.00000112,-0.
 00003465,-0.00010587,-0.00012499,-0.00012886,-0.00015004,0.00009707,0.
 00004022,-0.00002458,0.00002222,0.00001109,-0.00002334,0.00001004,0.00
 001141,-0.00001165,-0.00000367,0.00005034,-0.00003287,-0.00002603,0.00
 002381,-0.00003067,0.00002626,-0.00000438,0.00000116,0.00000042,-0.000
 00168,0.00000254,-0.00001111,-0.00000360,0.00000404,-0.00000699,-0.000
 00941,0.00003046,0.00000095,-0.00000689,-0.00000898,-0.00000579,0.0000
 0382,-0.00000439,0.00000645,0.00000312,-0.00000437,-0.00000281,-0.0000
 3694,-0.00000016,-0.00005662,0.00000542,-0.00000545,0.00001067,0.00000
 416,-0.00000573,0.00001299,0.00001156,-0.00000296,0.00001890,-0.014218
 09,0.01224759,0.01556027,-0.00033266,0.00007960,-0.00030173,0.09175051
 ,-0.10912772,-0.07623937,0.00812381,-0.00521187,-0.00457365,0.01274658
 ,-0.00743395,-0.01562630,-0.09137155,0.11196348,-0.00004319,0.00000988
 ,0.00001591,0.00019972,-0.00001160,-0.00019497,-0.00017227,-0.00019070
 ,0.00085070,-0.00003098,-0.00009737,0.00001061,0.00005615,-0.00011310,
 -0.00005344,0.00042214,0.00038526,0.00020694,-0.00036515,0.00004682,-0
 .00013668,-0.00004272,0.00011151,-0.00007843,0.00152828,0.00066648,0.0
 0054810,0.00001774,-0.00001031,-0.00001575,0.00000332,-0.00000435,0.00
 000377,0.00000370,0.00001608,-0.00000592,0.00000403,0.00004557,0.00006
 023,0.00001141,0.00002557,-0.00001008,0.00000521,0.00000928,0.00000422
 ,-0.00000527,0.00002227,-0.00001762,0.00000076,-0.00000406,0.00003593,
 -0.00006699,-0.00000162,0.00003888,-0.00000767,0.00000769,-0.00000533,
 0.00000186,-0.00000031,-0.00000155,0.00000187,0.00000313,0.00000481,-0
 .00000087,-0.00000292,0.00000308,0.00000795,0.00000532,0.00001804,0.00
 000423,0.00000574,-0.00000110,-0.00000211,0.00000216,-0.00000733,-0.00
 000235,0.00000052,0.00000146,0.00007798,-0.00001090,0.00009315,-0.0000
 1442,0.00000759,-0.00002196,0.00000253,0.00002874,-0.00002663,0.000007
 69,-0.00002080,-0.00000332,0.00197240,-0.00651161,-0.00727799,-0.00089
 037,-0.00001637,0.00049417,0.11657517,-0.07043016,-0.14320005,0.017832
 90,-0.00934203,-0.01286298,-0.01197913,0.00563097,0.01119778,-0.125113
 55,0.07973762,0.15033336\\0.00000767,-0.00000573,-0.00000816,-0.000003
 02,0.00000507,0.00000312,0.00000669,0.00000184,-0.00000331,-0.00000829
 ,-0.00000806,-0.00000218,-0.00000028,0.00000208,-0.00000613,0.00000175
 ,-0.00000064,0.00000728,0.00000340,-0.00000132,-0.00000520,-0.00000082
 ,0.00000438,-0.00000102,-0.00000475,-0.00000288,0.00000345,-0.00000176
 ,-0.00000225,0.00000321,0.00000267,0.00000059,-0.00000147,0.00000021,0
 .00000081,0.00000048,0.00000209,-0.00000299,-0.00000353,-0.00000320,-0
 .00000322,0.00000013,-0.00000080,-0.00000232,-0.00000082,0.00000091,0.
 00000151,0.00000189,0.00000471,0.00000512,-0.00000154,0.00000282,0.000
 00344,0.00000276,-0.00000308,-0.00000107,-0.00000803,-0.00000076,-0.00
 000515,-0.00000282,0.00000012,-0.00000229,-0.00000018,0.00000221,-0.00
 000264,-0.00000313,0.00000515,-0.00000674,-0.00000646,0.00000365,0.000
 00112,-0.00000228,0.00000161,0.00000089,-0.00000225,0.00000367,-0.0000
 0140,-0.00000517,-0.00000403,-0.00000393,0.00000870,-0.00000500,-0.000
 00235,0.00000062,-0.00000394,0.00000045,0.00000102,-0.00000641,-0.0000
 0030,0.00000297,0.00000278,-0.00000037,0.00000449,-0.00000123,0.000008
 91,0.00000162,-0.00000176,0.00000416,0.00000351,-0.00000255,0.00000403
 ,0.00000627,-0.00000085,0.00000451,0.00000612,0.00000041,0.00000672,0.
 00000606\\\@


 THERE'S A SUCKER BORN EVERY MINUTE

              -- PHINEAS TAYLOR (P.T.) BARNUM
 Job cpu time:       0 days  7 hours  6 minutes 34.1 seconds.
 File lengths (MBytes):  RWF=    766 Int=      0 D2E=      0 Chk=     19 Scr=      1
 Normal termination of Gaussian 09 at Mon Jan  9 13:24:11 2017.
