 Entering Gaussian System, Link 0=g09
 Initial command:
 /share/apps//g09/l1.exe "/scratch/Gau-29049.inp" -scrdir="/scratch/"
 Entering Link 1 = /share/apps//g09/l1.exe PID=     29050.
  
 Copyright (c) 1988,1990,1992,1993,1995,1998,2003,2009,2013,
            Gaussian, Inc.  All Rights Reserved.
  
 This is part of the Gaussian(R) 09 program.  It is based on
 the Gaussian(R) 03 system (copyright 2003, Gaussian, Inc.),
 the Gaussian(R) 98 system (copyright 1998, Gaussian, Inc.),
 the Gaussian(R) 94 system (copyright 1995, Gaussian, Inc.),
 the Gaussian 92(TM) system (copyright 1992, Gaussian, Inc.),
 the Gaussian 90(TM) system (copyright 1990, Gaussian, Inc.),
 the Gaussian 88(TM) system (copyright 1988, Gaussian, Inc.),
 the Gaussian 86(TM) system (copyright 1986, Carnegie Mellon
 University), and the Gaussian 82(TM) system (copyright 1983,
 Carnegie Mellon University). Gaussian is a federally registered
 trademark of Gaussian, Inc.
  
 This software contains proprietary and confidential information,
 including trade secrets, belonging to Gaussian, Inc.
  
 This software is provided under written license and may be
 used, copied, transmitted, or stored only in accord with that
 written license.
  
 The following legend is applicable only to US Government
 contracts under FAR:
  
                    RESTRICTED RIGHTS LEGEND
  
 Use, reproduction and disclosure by the US Government is
 subject to restrictions as set forth in subparagraphs (a)
 and (c) of the Commercial Computer Software - Restricted
 Rights clause in FAR 52.227-19.
  
 Gaussian, Inc.
 340 Quinnipiac St., Bldg. 40, Wallingford CT 06492
  
  
 ---------------------------------------------------------------
 Warning -- This program may not be used in any manner that
 competes with the business of Gaussian, Inc. or will provide
 assistance to any competitor of Gaussian, Inc.  The licensee
 of this program is prohibited from giving any competitor of
 Gaussian, Inc. access to this program.  By using this program,
 the user acknowledges that Gaussian, Inc. is engaged in the
 business of creating and licensing software in the field of
 computational chemistry and represents and warrants to the
 licensee that it is not a competitor of Gaussian, Inc. and that
 it will not use this program in any manner prohibited above.
 ---------------------------------------------------------------
  

 Cite this work as:
 Gaussian 09, Revision D.01,
 M. J. Frisch, G. W. Trucks, H. B. Schlegel, G. E. Scuseria, 
 M. A. Robb, J. R. Cheeseman, G. Scalmani, V. Barone, B. Mennucci, 
 G. A. Petersson, H. Nakatsuji, M. Caricato, X. Li, H. P. Hratchian, 
 A. F. Izmaylov, J. Bloino, G. Zheng, J. L. Sonnenberg, M. Hada, 
 M. Ehara, K. Toyota, R. Fukuda, J. Hasegawa, M. Ishida, T. Nakajima, 
 Y. Honda, O. Kitao, H. Nakai, T. Vreven, J. A. Montgomery, Jr., 
 J. E. Peralta, F. Ogliaro, M. Bearpark, J. J. Heyd, E. Brothers, 
 K. N. Kudin, V. N. Staroverov, T. Keith, R. Kobayashi, J. Normand, 
 K. Raghavachari, A. Rendell, J. C. Burant, S. S. Iyengar, J. Tomasi, 
 M. Cossi, N. Rega, J. M. Millam, M. Klene, J. E. Knox, J. B. Cross, 
 V. Bakken, C. Adamo, J. Jaramillo, R. Gomperts, R. E. Stratmann, 
 O. Yazyev, A. J. Austin, R. Cammi, C. Pomelli, J. W. Ochterski, 
 R. L. Martin, K. Morokuma, V. G. Zakrzewski, G. A. Voth, 
 P. Salvador, J. J. Dannenberg, S. Dapprich, A. D. Daniels, 
 O. Farkas, J. B. Foresman, J. V. Ortiz, J. Cioslowski, 
 and D. J. Fox, Gaussian, Inc., Wallingford CT, 2013.
 
 ******************************************
 Gaussian 09:  EM64L-G09RevD.01 24-Apr-2013
                 9-Jan-2017 
 ******************************************
 %nproc=20
 Will use up to   20 processors via shared memory.
 %mem=100GB
 %chk=Ac-4_cGalMe.chk
 -------------------------------------------------------------------
 #P PBE1PBE/6-311+G(d,p) opt optcyc=999 freq EmpiricalDispersion=GD3
 -------------------------------------------------------------------
 1/6=999,14=-1,18=20,19=15,26=3,38=1/1,3;
 2/9=110,12=2,17=6,18=5,40=1/2;
 3/5=4,6=6,7=111,11=2,16=1,25=1,30=1,71=1,74=-13,124=31/1,2,3;
 4//1;
 5/5=2,38=5/2;
 6/7=2,8=2,9=2,10=2,28=1/1;
 7//1,2,3,16;
 1/6=999,14=-1,18=20,19=15,26=3/3(2);
 2/9=110/2;
 99//99;
 2/9=110/2;
 3/5=4,6=6,7=111,11=2,16=1,25=1,30=1,71=1,74=-13,124=31/1,2,3;
 4/5=5,16=3,69=1/1;
 5/5=2,38=5/2;
 7//1,2,3,16;
 1/6=999,14=-1,18=20,19=15,26=3/3(-5);
 2/9=110/2;
 6/7=2,8=2,9=2,10=2,19=2,28=1/1;
 99/9=1/99;
 Leave Link    1 at Mon Jan  9 23:30:01 2017, MaxMem= 13421772800 cpu:         1.5
 (Enter /share/apps//g09/l101.exe)
 -------
 disacch
 -------
 Symbolic Z-matrix:
 Charge =  1 Multiplicity = 1
 C                    -1.85211   0.53163   0.60489 
 C                    -0.96022  -0.10846   1.67919 
 C                     0.35015   0.62758   2.00906 
 C                     1.16779   0.94916   0.74447 
 C                     1.18863  -0.30991  -0.16705 
 C                    -0.13627  -1.0764   -0.15205 
 O                    -0.64804  -1.39178   1.05693 
 O                     0.62096   2.02207  -0.01359 
 O                     0.06149   1.8501    2.70171 
 O                    -1.24875   0.04448  -0.67499 
 H                    -1.79858   1.6241    0.57235 
 H                    -2.87989   0.15463   0.65522 
 H                    -1.51742  -0.32569   2.59819 
 H                     0.92307  -0.04747   2.66401 
 H                     2.20954   1.17029   1.03547 
 H                     1.39739   0.02258  -1.19942 
 H                    -0.18443  -1.9247   -0.84569 
 O                     2.10048  -1.29509   0.28334 
 C                    -2.21629  -0.45299  -1.66717 
 H                    -1.63488  -0.70142  -2.55986 
 H                    -2.75111  -1.32475  -1.26947 
 H                    -2.89827   0.37496  -1.8845 
 C                     3.40374  -1.20692  -0.32179 
 H                     3.34148  -1.33651  -1.41406 
 H                     3.89126  -0.24613  -0.09071 
 H                     3.99124  -2.02267   0.11153 
 C                     1.25144   3.29535   0.21527 
 H                     1.07497   3.65554   1.23876 
 H                     2.33524   3.23207   0.02399 
 H                     0.80162   3.98921  -0.50338 
 C                    -0.05634   1.73136   4.09103 
 O                    -0.00097   0.66141   4.65274 
 C                    -0.23971   3.08059   4.7155 
 H                    -0.9943    3.66516   4.1748 
 H                     0.70743   3.63653   4.66242 
 H                    -0.52585   2.95962   5.76395 
 
 NAtoms=     36 NQM=       36 NQMF=       0 NMMI=      0 NMMIF=      0
                NMic=       0 NMicF=      0.
                    Isotopes and Nuclear Properties:
 (Nuclear quadrupole moments (NQMom) in fm**2, nuclear magnetic moments (NMagM)
  in nuclear magnetons)

  Atom         1           2           3           4           5           6           7           8           9          10
 IAtWgt=          12          12          12          12          12          12          16          16          16          16
 AtmWgt=  12.0000000  12.0000000  12.0000000  12.0000000  12.0000000  12.0000000  15.9949146  15.9949146  15.9949146  15.9949146
 NucSpn=           0           0           0           0           0           0           0           0           0           0
 AtZEff=   0.0000000   0.0000000   0.0000000   0.0000000   0.0000000   0.0000000   0.0000000   0.0000000   0.0000000   0.0000000
 NQMom=    0.0000000   0.0000000   0.0000000   0.0000000   0.0000000   0.0000000   0.0000000   0.0000000   0.0000000   0.0000000
 NMagM=    0.0000000   0.0000000   0.0000000   0.0000000   0.0000000   0.0000000   0.0000000   0.0000000   0.0000000   0.0000000
 AtZNuc=   6.0000000   6.0000000   6.0000000   6.0000000   6.0000000   6.0000000   8.0000000   8.0000000   8.0000000   8.0000000

  Atom        11          12          13          14          15          16          17          18          19          20
 IAtWgt=           1           1           1           1           1           1           1          16          12           1
 AtmWgt=   1.0078250   1.0078250   1.0078250   1.0078250   1.0078250   1.0078250   1.0078250  15.9949146  12.0000000   1.0078250
 NucSpn=           1           1           1           1           1           1           1           0           0           1
 AtZEff=   0.0000000   0.0000000   0.0000000   0.0000000   0.0000000   0.0000000   0.0000000   0.0000000   0.0000000   0.0000000
 NQMom=    0.0000000   0.0000000   0.0000000   0.0000000   0.0000000   0.0000000   0.0000000   0.0000000   0.0000000   0.0000000
 NMagM=    2.7928460   2.7928460   2.7928460   2.7928460   2.7928460   2.7928460   2.7928460   0.0000000   0.0000000   2.7928460
 AtZNuc=   1.0000000   1.0000000   1.0000000   1.0000000   1.0000000   1.0000000   1.0000000   8.0000000   6.0000000   1.0000000

  Atom        21          22          23          24          25          26          27          28          29          30
 IAtWgt=           1           1          12           1           1           1          12           1           1           1
 AtmWgt=   1.0078250   1.0078250  12.0000000   1.0078250   1.0078250   1.0078250  12.0000000   1.0078250   1.0078250   1.0078250
 NucSpn=           1           1           0           1           1           1           0           1           1           1
 AtZEff=   0.0000000   0.0000000   0.0000000   0.0000000   0.0000000   0.0000000   0.0000000   0.0000000   0.0000000   0.0000000
 NQMom=    0.0000000   0.0000000   0.0000000   0.0000000   0.0000000   0.0000000   0.0000000   0.0000000   0.0000000   0.0000000
 NMagM=    2.7928460   2.7928460   0.0000000   2.7928460   2.7928460   2.7928460   0.0000000   2.7928460   2.7928460   2.7928460
 AtZNuc=   1.0000000   1.0000000   6.0000000   1.0000000   1.0000000   1.0000000   6.0000000   1.0000000   1.0000000   1.0000000

  Atom        31          32          33          34          35          36
 IAtWgt=          12          16          12           1           1           1
 AtmWgt=  12.0000000  15.9949146  12.0000000   1.0078250   1.0078250   1.0078250
 NucSpn=           0           0           0           1           1           1
 AtZEff=   0.0000000   0.0000000   0.0000000   0.0000000   0.0000000   0.0000000
 NQMom=    0.0000000   0.0000000   0.0000000   0.0000000   0.0000000   0.0000000
 NMagM=    0.0000000   0.0000000   0.0000000   2.7928460   2.7928460   2.7928460
 AtZNuc=   6.0000000   8.0000000   6.0000000   1.0000000   1.0000000   1.0000000
 Leave Link  101 at Mon Jan  9 23:30:01 2017, MaxMem= 13421772800 cpu:         4.9
 (Enter /share/apps//g09/l103.exe)

 GradGradGradGradGradGradGradGradGradGradGradGradGradGradGradGradGradGrad
 Berny optimization.
 Initialization pass.
                           ----------------------------
                           !    Initial Parameters    !
                           ! (Angstroms and Degrees)  !
 --------------------------                            --------------------------
 ! Name  Definition              Value          Derivative Info.                !
 --------------------------------------------------------------------------------
 ! R1    R(1,2)                  1.536          estimate D2E/DX2                !
 ! R2    R(1,10)                 1.4965         estimate D2E/DX2                !
 ! R3    R(1,11)                 1.0943         estimate D2E/DX2                !
 ! R4    R(1,12)                 1.0959         estimate D2E/DX2                !
 ! R5    R(2,3)                  1.5387         estimate D2E/DX2                !
 ! R6    R(2,7)                  1.46           estimate D2E/DX2                !
 ! R7    R(2,13)                 1.0965         estimate D2E/DX2                !
 ! R8    R(3,4)                  1.5398         estimate D2E/DX2                !
 ! R9    R(3,9)                  1.4344         estimate D2E/DX2                !
 ! R10   R(3,14)                 1.1013         estimate D2E/DX2                !
 ! R11   R(4,5)                  1.5545         estimate D2E/DX2                !
 ! R12   R(4,8)                  1.423          estimate D2E/DX2                !
 ! R13   R(4,15)                 1.104          estimate D2E/DX2                !
 ! R14   R(5,6)                  1.5307         estimate D2E/DX2                !
 ! R15   R(5,16)                 1.1045         estimate D2E/DX2                !
 ! R16   R(5,18)                 1.4159         estimate D2E/DX2                !
 ! R17   R(6,7)                  1.3502         estimate D2E/DX2                !
 ! R18   R(6,10)                 1.6636         estimate D2E/DX2                !
 ! R19   R(6,17)                 1.0968         estimate D2E/DX2                !
 ! R20   R(8,27)                 1.4391         estimate D2E/DX2                !
 ! R21   R(9,31)                 1.3994         estimate D2E/DX2                !
 ! R22   R(10,19)                1.4724         estimate D2E/DX2                !
 ! R23   R(18,23)                1.4396         estimate D2E/DX2                !
 ! R24   R(19,20)                1.0939         estimate D2E/DX2                !
 ! R25   R(19,21)                1.0973         estimate D2E/DX2                !
 ! R26   R(19,22)                1.0945         estimate D2E/DX2                !
 ! R27   R(23,24)                1.1017         estimate D2E/DX2                !
 ! R28   R(23,25)                1.1019         estimate D2E/DX2                !
 ! R29   R(23,26)                1.0947         estimate D2E/DX2                !
 ! R30   R(27,28)                1.0993         estimate D2E/DX2                !
 ! R31   R(27,29)                1.1024         estimate D2E/DX2                !
 ! R32   R(27,30)                1.0956         estimate D2E/DX2                !
 ! R33   R(31,32)                1.2097         estimate D2E/DX2                !
 ! R34   R(31,33)                1.498          estimate D2E/DX2                !
 ! R35   R(33,34)                1.097          estimate D2E/DX2                !
 ! R36   R(33,35)                1.0995         estimate D2E/DX2                !
 ! R37   R(33,36)                1.0935         estimate D2E/DX2                !
 ! A1    A(2,1,10)             103.2035         estimate D2E/DX2                !
 ! A2    A(2,1,11)             114.1065         estimate D2E/DX2                !
 ! A3    A(2,1,12)             111.6592         estimate D2E/DX2                !
 ! A4    A(10,1,11)            106.2507         estimate D2E/DX2                !
 ! A5    A(10,1,12)            107.7833         estimate D2E/DX2                !
 ! A6    A(11,1,12)            112.9974         estimate D2E/DX2                !
 ! A7    A(1,2,3)              116.429          estimate D2E/DX2                !
 ! A8    A(1,2,7)              101.0905         estimate D2E/DX2                !
 ! A9    A(1,2,13)             111.9438         estimate D2E/DX2                !
 ! A10   A(3,2,7)              109.2531         estimate D2E/DX2                !
 ! A11   A(3,2,13)             110.3561         estimate D2E/DX2                !
 ! A12   A(7,2,13)             106.9623         estimate D2E/DX2                !
 ! A13   A(2,3,4)              112.0879         estimate D2E/DX2                !
 ! A14   A(2,3,9)              109.866          estimate D2E/DX2                !
 ! A15   A(2,3,14)             106.0994         estimate D2E/DX2                !
 ! A16   A(4,3,9)              108.991          estimate D2E/DX2                !
 ! A17   A(4,3,14)             109.8874         estimate D2E/DX2                !
 ! A18   A(9,3,14)             109.8717         estimate D2E/DX2                !
 ! A19   A(3,4,5)              108.6339         estimate D2E/DX2                !
 ! A20   A(3,4,8)              113.0115         estimate D2E/DX2                !
 ! A21   A(3,4,15)             109.0509         estimate D2E/DX2                !
 ! A22   A(5,4,8)              107.6659         estimate D2E/DX2                !
 ! A23   A(5,4,15)             107.7062         estimate D2E/DX2                !
 ! A24   A(8,4,15)             110.6108         estimate D2E/DX2                !
 ! A25   A(4,5,6)              112.8437         estimate D2E/DX2                !
 ! A26   A(4,5,16)             107.8658         estimate D2E/DX2                !
 ! A27   A(4,5,18)             112.6844         estimate D2E/DX2                !
 ! A28   A(6,5,16)             108.8743         estimate D2E/DX2                !
 ! A29   A(6,5,18)             101.8809         estimate D2E/DX2                !
 ! A30   A(16,5,18)            112.6465         estimate D2E/DX2                !
 ! A31   A(5,6,7)              116.9884         estimate D2E/DX2                !
 ! A32   A(5,6,10)             103.789          estimate D2E/DX2                !
 ! A33   A(5,6,17)             114.7765         estimate D2E/DX2                !
 ! A34   A(7,6,10)             100.6835         estimate D2E/DX2                !
 ! A35   A(7,6,17)             111.6516         estimate D2E/DX2                !
 ! A36   A(10,6,17)            107.0345         estimate D2E/DX2                !
 ! A37   A(2,7,6)              104.9137         estimate D2E/DX2                !
 ! A38   A(4,8,27)             114.458          estimate D2E/DX2                !
 ! A39   A(3,9,31)             115.0895         estimate D2E/DX2                !
 ! A40   A(1,10,6)             102.7155         estimate D2E/DX2                !
 ! A41   A(1,10,19)            114.9203         estimate D2E/DX2                !
 ! A42   A(6,10,19)            115.0626         estimate D2E/DX2                !
 ! A43   A(5,18,23)            113.9963         estimate D2E/DX2                !
 ! A44   A(10,19,20)           106.1032         estimate D2E/DX2                !
 ! A45   A(10,19,21)           110.1481         estimate D2E/DX2                !
 ! A46   A(10,19,22)           106.719          estimate D2E/DX2                !
 ! A47   A(20,19,21)           111.9857         estimate D2E/DX2                !
 ! A48   A(20,19,22)           109.9343         estimate D2E/DX2                !
 ! A49   A(21,19,22)           111.6695         estimate D2E/DX2                !
 ! A50   A(18,23,24)           111.0011         estimate D2E/DX2                !
 ! A51   A(18,23,25)           111.4559         estimate D2E/DX2                !
 ! A52   A(18,23,26)           105.8919         estimate D2E/DX2                !
 ! A53   A(24,23,25)           109.602          estimate D2E/DX2                !
 ! A54   A(24,23,26)           109.5801         estimate D2E/DX2                !
 ! A55   A(25,23,26)           109.226          estimate D2E/DX2                !
 ! A56   A(8,27,28)            111.5696         estimate D2E/DX2                !
 ! A57   A(8,27,29)            110.6302         estimate D2E/DX2                !
 ! A58   A(8,27,30)            106.031          estimate D2E/DX2                !
 ! A59   A(28,27,29)           109.7668         estimate D2E/DX2                !
 ! A60   A(28,27,30)           109.7132         estimate D2E/DX2                !
 ! A61   A(29,27,30)           109.0386         estimate D2E/DX2                !
 ! A62   A(9,31,32)            122.1545         estimate D2E/DX2                !
 ! A63   A(9,31,33)            110.3504         estimate D2E/DX2                !
 ! A64   A(32,31,33)           127.4934         estimate D2E/DX2                !
 ! A65   A(31,33,34)           111.0191         estimate D2E/DX2                !
 ! A66   A(31,33,35)           109.2587         estimate D2E/DX2                !
 ! A67   A(31,33,36)           109.3953         estimate D2E/DX2                !
 ! A68   A(34,33,35)           107.4153         estimate D2E/DX2                !
 ! A69   A(34,33,36)           110.5806         estimate D2E/DX2                !
 ! A70   A(35,33,36)           109.1248         estimate D2E/DX2                !
 ! D1    D(10,1,2,3)            83.0198         estimate D2E/DX2                !
 ! D2    D(10,1,2,7)           -35.1876         estimate D2E/DX2                !
 ! D3    D(10,1,2,13)         -148.7339         estimate D2E/DX2                !
 ! D4    D(11,1,2,3)           -31.8074         estimate D2E/DX2                !
 ! D5    D(11,1,2,7)          -150.0148         estimate D2E/DX2                !
 ! D6    D(11,1,2,13)           96.4389         estimate D2E/DX2                !
 ! D7    D(12,1,2,3)          -161.4674         estimate D2E/DX2                !
 ! D8    D(12,1,2,7)            80.3252         estimate D2E/DX2                !
 ! D9    D(12,1,2,13)          -33.2211         estimate D2E/DX2                !
 ! D10   D(2,1,10,6)             8.5147         estimate D2E/DX2                !
 ! D11   D(2,1,10,19)          134.2244         estimate D2E/DX2                !
 ! D12   D(11,1,10,6)          128.8707         estimate D2E/DX2                !
 ! D13   D(11,1,10,19)        -105.4197         estimate D2E/DX2                !
 ! D14   D(12,1,10,6)         -109.7393         estimate D2E/DX2                !
 ! D15   D(12,1,10,19)          15.9703         estimate D2E/DX2                !
 ! D16   D(1,2,3,4)            -51.1533         estimate D2E/DX2                !
 ! D17   D(1,2,3,9)             70.1821         estimate D2E/DX2                !
 ! D18   D(1,2,3,14)          -171.1022         estimate D2E/DX2                !
 ! D19   D(7,2,3,4)             62.4961         estimate D2E/DX2                !
 ! D20   D(7,2,3,9)           -176.1685         estimate D2E/DX2                !
 ! D21   D(7,2,3,14)           -57.4528         estimate D2E/DX2                !
 ! D22   D(13,2,3,4)           179.8318         estimate D2E/DX2                !
 ! D23   D(13,2,3,9)           -58.8328         estimate D2E/DX2                !
 ! D24   D(13,2,3,14)           59.8828         estimate D2E/DX2                !
 ! D25   D(1,2,7,6)             54.3247         estimate D2E/DX2                !
 ! D26   D(3,2,7,6)            -68.9666         estimate D2E/DX2                !
 ! D27   D(13,2,7,6)           171.5775         estimate D2E/DX2                !
 ! D28   D(2,3,4,5)            -44.9073         estimate D2E/DX2                !
 ! D29   D(2,3,4,8)             74.509          estimate D2E/DX2                !
 ! D30   D(2,3,4,15)          -162.0366         estimate D2E/DX2                !
 ! D31   D(9,3,4,5)           -166.7446         estimate D2E/DX2                !
 ! D32   D(9,3,4,8)            -47.3283         estimate D2E/DX2                !
 ! D33   D(9,3,4,15)            76.1261         estimate D2E/DX2                !
 ! D34   D(14,3,4,5)            72.8061         estimate D2E/DX2                !
 ! D35   D(14,3,4,8)          -167.7776         estimate D2E/DX2                !
 ! D36   D(14,3,4,15)          -44.3232         estimate D2E/DX2                !
 ! D37   D(2,3,9,31)            87.0692         estimate D2E/DX2                !
 ! D38   D(4,3,9,31)          -149.7565         estimate D2E/DX2                !
 ! D39   D(14,3,9,31)          -29.2975         estimate D2E/DX2                !
 ! D40   D(3,4,5,6)             37.1262         estimate D2E/DX2                !
 ! D41   D(3,4,5,16)           157.4306         estimate D2E/DX2                !
 ! D42   D(3,4,5,18)           -77.5956         estimate D2E/DX2                !
 ! D43   D(8,4,5,6)            -85.5813         estimate D2E/DX2                !
 ! D44   D(8,4,5,16)            34.7232         estimate D2E/DX2                !
 ! D45   D(8,4,5,18)           159.697          estimate D2E/DX2                !
 ! D46   D(15,4,5,6)           155.1116         estimate D2E/DX2                !
 ! D47   D(15,4,5,16)          -84.584          estimate D2E/DX2                !
 ! D48   D(15,4,5,18)           40.3898         estimate D2E/DX2                !
 ! D49   D(3,4,8,27)            98.5764         estimate D2E/DX2                !
 ! D50   D(5,4,8,27)          -141.4508         estimate D2E/DX2                !
 ! D51   D(15,4,8,27)          -24.0124         estimate D2E/DX2                !
 ! D52   D(4,5,6,7)            -50.9722         estimate D2E/DX2                !
 ! D53   D(4,5,6,10)            58.8558         estimate D2E/DX2                !
 ! D54   D(4,5,6,17)           175.311          estimate D2E/DX2                !
 ! D55   D(16,5,6,7)          -170.6969         estimate D2E/DX2                !
 ! D56   D(16,5,6,10)          -60.869          estimate D2E/DX2                !
 ! D57   D(16,5,6,17)           55.5863         estimate D2E/DX2                !
 ! D58   D(18,5,6,7)            70.1097         estimate D2E/DX2                !
 ! D59   D(18,5,6,10)          179.9377         estimate D2E/DX2                !
 ! D60   D(18,5,6,17)          -63.607          estimate D2E/DX2                !
 ! D61   D(4,5,18,23)          -93.5485         estimate D2E/DX2                !
 ! D62   D(6,5,18,23)          145.2589         estimate D2E/DX2                !
 ! D63   D(16,5,18,23)          28.7736         estimate D2E/DX2                !
 ! D64   D(5,6,7,2)             64.722          estimate D2E/DX2                !
 ! D65   D(10,6,7,2)           -46.8869         estimate D2E/DX2                !
 ! D66   D(17,6,7,2)          -160.1924         estimate D2E/DX2                !
 ! D67   D(5,6,10,1)           -98.6137         estimate D2E/DX2                !
 ! D68   D(5,6,10,19)          135.7692         estimate D2E/DX2                !
 ! D69   D(7,6,10,1)            22.8407         estimate D2E/DX2                !
 ! D70   D(7,6,10,19)         -102.7765         estimate D2E/DX2                !
 ! D71   D(17,6,10,1)          139.6165         estimate D2E/DX2                !
 ! D72   D(17,6,10,19)          13.9993         estimate D2E/DX2                !
 ! D73   D(4,8,27,28)          -66.3583         estimate D2E/DX2                !
 ! D74   D(4,8,27,29)           56.1488         estimate D2E/DX2                !
 ! D75   D(4,8,27,30)          174.2372         estimate D2E/DX2                !
 ! D76   D(3,9,31,32)           -4.4052         estimate D2E/DX2                !
 ! D77   D(3,9,31,33)          175.1514         estimate D2E/DX2                !
 ! D78   D(1,10,19,20)         176.091          estimate D2E/DX2                !
 ! D79   D(1,10,19,21)         -62.5105         estimate D2E/DX2                !
 ! D80   D(1,10,19,22)          58.8815         estimate D2E/DX2                !
 ! D81   D(6,10,19,20)         -64.8831         estimate D2E/DX2                !
 ! D82   D(6,10,19,21)          56.5154         estimate D2E/DX2                !
 ! D83   D(6,10,19,22)         177.9074         estimate D2E/DX2                !
 ! D84   D(5,18,23,24)         -60.8327         estimate D2E/DX2                !
 ! D85   D(5,18,23,25)          61.6461         estimate D2E/DX2                !
 ! D86   D(5,18,23,26)        -179.6834         estimate D2E/DX2                !
 ! D87   D(9,31,33,34)          46.597          estimate D2E/DX2                !
 ! D88   D(9,31,33,35)         -71.6898         estimate D2E/DX2                !
 ! D89   D(9,31,33,36)         168.9082         estimate D2E/DX2                !
 ! D90   D(32,31,33,34)       -133.8761         estimate D2E/DX2                !
 ! D91   D(32,31,33,35)        107.837          estimate D2E/DX2                !
 ! D92   D(32,31,33,36)        -11.5649         estimate D2E/DX2                !
 --------------------------------------------------------------------------------
 Trust Radius=3.00D-01 FncErr=1.00D-07 GrdErr=1.00D-06
 Number of steps in this run=    216 maximum allowed number of steps=    216.
 GradGradGradGradGradGradGradGradGradGradGradGradGradGradGradGradGradGrad

 Leave Link  103 at Mon Jan  9 23:30:02 2017, MaxMem= 13421772800 cpu:         0.3
 (Enter /share/apps//g09/l202.exe)
                          Input orientation:                          
 ---------------------------------------------------------------------
 Center     Atomic      Atomic             Coordinates (Angstroms)
 Number     Number       Type             X           Y           Z
 ---------------------------------------------------------------------
      1          6           0       -1.852110    0.531630    0.604890
      2          6           0       -0.960220   -0.108460    1.679190
      3          6           0        0.350150    0.627580    2.009060
      4          6           0        1.167790    0.949160    0.744470
      5          6           0        1.188630   -0.309910   -0.167050
      6          6           0       -0.136270   -1.076400   -0.152050
      7          8           0       -0.648040   -1.391780    1.056930
      8          8           0        0.620960    2.022070   -0.013590
      9          8           0        0.061490    1.850100    2.701710
     10          8           0       -1.248750    0.044480   -0.674990
     11          1           0       -1.798580    1.624100    0.572350
     12          1           0       -2.879890    0.154630    0.655220
     13          1           0       -1.517420   -0.325690    2.598190
     14          1           0        0.923070   -0.047470    2.664010
     15          1           0        2.209540    1.170290    1.035470
     16          1           0        1.397390    0.022580   -1.199420
     17          1           0       -0.184430   -1.924700   -0.845690
     18          8           0        2.100480   -1.295090    0.283340
     19          6           0       -2.216290   -0.452990   -1.667170
     20          1           0       -1.634880   -0.701420   -2.559860
     21          1           0       -2.751110   -1.324750   -1.269470
     22          1           0       -2.898270    0.374960   -1.884500
     23          6           0        3.403740   -1.206920   -0.321790
     24          1           0        3.341480   -1.336510   -1.414060
     25          1           0        3.891260   -0.246130   -0.090710
     26          1           0        3.991240   -2.022670    0.111530
     27          6           0        1.251440    3.295350    0.215270
     28          1           0        1.074970    3.655540    1.238760
     29          1           0        2.335240    3.232070    0.023990
     30          1           0        0.801620    3.989210   -0.503380
     31          6           0       -0.056340    1.731360    4.091030
     32          8           0       -0.000970    0.661410    4.652740
     33          6           0       -0.239710    3.080590    4.715500
     34          1           0       -0.994300    3.665160    4.174800
     35          1           0        0.707430    3.636530    4.662420
     36          1           0       -0.525850    2.959620    5.763950
 ---------------------------------------------------------------------
                    Distance matrix (angstroms):
                    1          2          3          4          5
     1  C    0.000000
     2  C    1.536002   0.000000
     3  C    2.613589   1.538713   0.000000
     4  C    3.051821   2.553564   1.539850   0.000000
     5  C    3.248104   2.840201   2.513442   1.554529   0.000000
     6  C    2.470390   2.229180   2.794736   2.570450   1.530716
     7  O    2.313791   1.459991   2.445557   2.979072   2.458033
     8  O    2.952965   3.147188   2.471650   1.422960   2.404980
     9  O    3.129997   2.434214   1.434449   2.422061   3.763758
    10  O    1.496480   2.376721   3.178146   2.944992   2.514839
    11  H    1.094265   2.220294   2.770240   3.047051   3.634629
    12  H    1.095899   2.191544   3.534080   4.125889   4.176695
    13  H    2.195509   1.096459   2.177984   3.503123   3.869045
    14  H    3.503849   2.126117   1.101313   2.176647   2.855573
    15  H    4.134040   3.478068   2.167889   1.104003   2.163170
    16  H    3.751522   3.723156   3.428860   2.165635   1.104499
    17  H    3.304375   3.205557   3.866459   3.551926   2.225622
    18  O    4.366150   3.567124   3.120645   2.473704   1.415945
    19  C    2.502870   3.590897   4.611823   4.385662   3.723481
    20  H    3.403416   4.333164   5.155736   4.636590   3.721697
    21  H    2.787037   3.658038   4.917130   4.958266   4.215066
    22  H    2.704821   4.085293   5.076993   4.875862   4.485692
    23  C    5.612954   4.924904   4.257072   3.284062   2.394845
    24  H    5.877030   5.438835   4.952116   3.822102   2.691413
    25  H    5.837385   5.166078   4.208546   3.089261   2.704460
    26  H    6.396295   5.535225   4.886919   4.147801   3.296328
    27  C    4.173964   4.315139   3.338713   2.406586   3.626019
    28  H    4.327632   4.301590   3.207377   2.752713   4.208802
    29  H    5.016345   4.975830   3.829419   2.663402   3.727846
    30  H    4.497266   4.965742   4.220988   3.306526   4.329587
    31  C    4.100892   3.165266   2.391268   3.648259   4.883439
    32  O    4.452937   3.217897   2.667110   4.089422   5.058556
    33  C    5.098445   4.461878   3.700001   4.721560   6.113505
    34  H    4.826915   4.524316   3.965459   4.880415   6.278378
    35  H    5.714473   5.070076   4.027623   4.773282   6.255375
    36  H    5.854059   5.127090   4.506105   5.666176   6.986131
                    6          7          8          9         10
     6  C    0.000000
     7  O    1.350187   0.000000
     8  O    3.192661   3.796149   0.000000
     9  O    4.092366   3.703852   2.777667   0.000000
    10  O    1.663565   2.328786   2.800737   4.047110   0.000000
    11  H    3.252803   3.264061   2.521087   2.836390   2.086473
    12  H    3.113611   2.744797   4.023753   3.964146   2.107655
    13  H    3.167801   2.065878   4.111696   2.690304   3.304984
    14  H    3.179794   2.618828   3.397618   2.084350   3.984241
    15  H    3.458416   3.838024   2.085580   2.802252   4.019066
    16  H    2.157975   3.357873   2.450918   4.510352   2.697696
    17  H    1.096845   2.029508   4.113154   5.185908   2.244902
    18  O    2.289201   2.856948   3.644269   4.460741   3.732316
    19  C    2.647775   3.280466   4.112206   5.438715   1.472424
    20  H    2.860768   3.812036   4.357718   6.088682   2.063540
    21  H    2.854416   3.136803   4.914193   5.810393   2.117849
    22  H    3.568820   4.103281   4.312569   5.654161   2.071967
    23  C    3.546480   4.283919   4.273784   5.445875   4.830778
    24  H    3.708783   4.693092   4.543413   6.152429   4.850110
    25  H    4.112677   4.820253   3.980646   5.182560   5.181268
    26  H    4.242787   4.776476   5.266343   6.095106   5.687637
    27  C    4.601398   5.126949   1.439140   3.112413   4.196626
    28  H    5.078652   5.336409   2.107778   2.535149   4.701262
    29  H    4.970137   5.598831   2.098635   3.774913   4.847091
    30  H    5.163669   5.787153   2.035233   3.923797   4.449086
    31  C    5.088579   4.394300   4.170270   1.399355   5.194454
    32  O    5.111193   4.190959   4.900289   2.285477   5.506566
    33  C    6.401899   5.792578   4.921942   2.379113   6.268453
    34  H    6.476128   5.950937   4.780316   2.564981   6.057601
    35  H    6.789894   6.334095   4.947628   2.730010   6.724389
    36  H    7.172188   6.411369   5.964406   3.309580   7.104968
                   11         12         13         14         15
    11  H    0.000000
    12  H    1.826319   0.000000
    13  H    2.825732   2.421191   0.000000
    14  H    3.817927   4.305646   2.457179   0.000000
    15  H    4.060228   5.203696   4.309325   2.406260   0.000000
    16  H    3.989769   4.663931   4.799922   3.893068   2.640371
    17  H    4.148530   3.720464   4.024178   4.131409   4.341523
    18  O    4.879330   5.200391   4.403120   2.934355   2.579863
    19  C    3.082894   2.490595   4.324109   5.364620   5.433900
    20  H    3.904559   3.552409   5.173050   5.853168   5.586525
    21  H    3.604904   2.430963   4.180778   5.532026   6.012156
    22  H    2.967454   2.549326   4.742591   5.955672   5.937045
    23  C    5.989849   6.503259   5.789703   4.051302   2.986536
    24  H    6.255498   6.723902   6.381913   4.913348   3.683142
    25  H    6.025918   6.823891   6.040723   4.054393   2.470366
    26  H    6.858083   7.228324   6.277623   4.453115   3.771354
    27  C    3.496170   5.208221   5.143620   4.156754   2.471146
    28  H    3.581639   5.313926   4.941531   3.970730   2.739533
    29  H    4.469310   6.088240   5.841845   4.440643   2.299963
    30  H    3.675865   5.440577   5.797935   5.132436   3.506652
    31  C    3.927851   4.718400   2.931686   2.481908   3.845186
    32  O    4.561552   4.952290   2.737729   2.304649   4.269655
    33  C    4.660164   5.658416   4.209310   3.917324   4.815672
    34  H    4.217871   5.316645   4.322758   4.443244   5.132676
    35  H    5.201791   6.407039   4.991011   4.196665   4.636102
    36  H    5.509643   6.285586   4.668887   4.555391   5.748268
                   16         17         18         19         20
    16  H    0.000000
    17  H    2.533610   0.000000
    18  O    2.104559   2.625249   0.000000
    19  C    3.674730   2.639927   4.811250   0.000000
    20  H    3.401417   2.557068   4.731717   1.093915   0.000000
    21  H    4.362368   2.669715   5.094117   1.097344   1.816485
    22  H    4.364195   3.705737   5.698780   1.094454   1.791887
    23  C    2.511443   3.696572   1.439598   5.827795   5.536441
    24  H    2.381739   3.619538   2.103084   5.633248   5.145907
    25  H    2.742413   4.472006   2.108820   6.311116   6.069779
    26  H    3.553828   4.285101   2.033191   6.645382   6.366730
    27  C    3.568427   5.516909   4.668794   5.442314   5.657416
    28  H    4.387149   6.088522   5.145215   6.013056   6.384035
    29  H    3.560494   5.804942   4.540655   6.095582   6.157148
    30  H    4.071065   6.005314   5.498163   5.495028   5.671653
    31  C    5.746488   6.144460   5.320693   6.526380   7.255656
    32  O    6.050726   6.079009   5.228350   6.789020   7.519878
    33  C    6.856953   7.482167   6.653353   7.558540   8.317509
    34  H    6.918874   7.556967   7.023190   7.251278   8.051895
    35  H    6.920827   7.877942   6.740757   8.083070   8.744459
    36  H    7.798306   8.225600   7.418710   8.350152   9.160730
                   21         22         23         24         25
    21  H    0.000000
    22  H    1.813541   0.000000
    23  C    6.228496   6.682794   0.000000
    24  H    6.094317   6.487289   1.101691   0.000000
    25  H    6.831835   7.049904   1.101903   1.800678   0.000000
    26  H    6.917625   7.562943   1.094701   1.794555   1.790807
    27  C    6.290484   5.491612   5.019090   5.336395   4.427680
    28  H    6.762647   6.025246   5.612665   6.090573   4.992195
    29  H    6.950439   6.260594   4.578852   4.894122   3.812116
    30  H    6.437931   5.353455   5.814101   5.970219   5.258733
    31  C    6.733242   6.754506   6.330768   7.159820   6.081197
    32  O    6.825004   7.156250   6.310995   7.209003   6.202693
    33  C    7.844362   7.612383   7.551938   8.361053   7.157628
    34  H    7.591157   7.153016   7.956082   8.663201   7.573735
    35  H    8.471311   8.154819   7.454626   8.282086   6.914049
    36  H    8.530921   8.414727   8.356911   9.216116   8.004045
                   26         27         28         29         30
    26  H    0.000000
    27  C    5.983193   0.000000
    28  H    6.482079   1.099277   0.000000
    29  H    5.510199   1.102368   1.800909   0.000000
    30  H    6.833337   1.095554   1.794744   1.789796   0.000000
    31  C    6.805297   4.379254   3.621847   4.951020   5.190625
    32  O    6.615483   5.310114   4.666661   5.787184   6.189021
    33  C    8.070981   4.745705   3.761206   5.353838   5.398765
    34  H    8.585871   4.567054   3.591977   5.338785   5.021524
    35  H    7.969978   4.493272   3.443384   4.932381   5.178682
    36  H    8.785054   5.836037   4.850183   6.419284   6.488579
                   31         32         33         34         35
    31  C    0.000000
    32  O    1.209701   0.000000
    33  C    1.498002   2.431742   0.000000
    34  H    2.150900   3.199632   1.097034   0.000000
    35  H    2.130611   3.058311   1.099528   1.770446   0.000000
    36  H    2.127845   2.606157   1.093507   1.800730   1.786772
                   36
    36  H    0.000000
 Stoichiometry    C11H19O6(1+)
 Framework group  C1[X(C11H19O6)]
 Deg. of freedom   102
 Full point group                 C1      NOp   1
 Largest Abelian subgroup         C1      NOp   1
 Largest concise Abelian subgroup C1      NOp   1
                         Standard orientation:                         
 ---------------------------------------------------------------------
 Center     Atomic      Atomic             Coordinates (Angstroms)
 Number     Number       Type             X           Y           Z
 ---------------------------------------------------------------------
      1          6           0       -0.306637   -2.062371    0.209627
      2          6           0        0.200094   -1.112232   -0.885709
      3          6           0        0.781137    0.231420   -0.411759
      4          6           0       -0.171146    0.967529    0.548677
      5          6           0       -1.611309    0.902286   -0.032902
      6          6           0       -1.916330   -0.433076   -0.716176
      7          8           0       -1.028398   -0.867725   -1.635776
      8          8           0       -0.204181    0.391363    1.849351
      9          8           0        2.035170    0.013973    0.249877
     10          8           0       -1.687076   -1.556629    0.489029
     11          1           0        0.242773   -1.990127    1.153208
     12          1           0       -0.394954   -3.091452   -0.156689
     13          1           0        0.898383   -1.609957   -1.568998
     14          1           0        0.936749    0.834291   -1.320176
     15          1           0        0.121632    2.030672    0.601892
     16          1           0       -2.320521    1.046975    0.801365
     17          1           0       -2.949569   -0.544468   -1.066999
     18          8           0       -1.816151    1.823406   -1.088591
     19          6           0       -2.723813   -2.598587    0.575816
     20          1           0       -3.648961   -2.083902    0.851226
     21          1           0       -2.815039   -3.121927   -0.384369
     22          1           0       -2.421261   -3.277645    1.379043
     23          6           0       -2.368433    3.084120   -0.666657
     24          1           0       -3.355434    2.945499   -0.197255
     25          1           0       -1.695736    3.604602    0.033890
     26          1           0       -2.475723    3.683805   -1.576184
     27          6           0        0.623022    1.060322    2.818554
     28          1           0        1.690622    0.960588    2.576287
     29          1           0        0.354575    2.127247    2.887989
     30          1           0        0.415289    0.576290    3.779178
     31          6           0        3.153233   -0.011705   -0.591234
     32          8           0        3.055274    0.060974   -1.794770
     33          6           0        4.409902   -0.126302    0.216020
     34          1           0        4.314974   -0.904393    0.983515
     35          1           0        4.596435    0.825601    0.733754
     36          1           0        5.250321   -0.343014   -0.449178
 ---------------------------------------------------------------------
 Rotational constants (GHZ):      0.5992078      0.3578217      0.3239138
 Leave Link  202 at Mon Jan  9 23:30:02 2017, MaxMem= 13421772800 cpu:         0.9
 (Enter /share/apps//g09/l301.exe)
 Standard basis: 6-311+G(d,p) (5D, 7F)
 Ernie: Thresh=  0.10000D-02 Tol=  0.10000D-05 Strict=F.
 There are   505 symmetry adapted cartesian basis functions of A   symmetry.
 There are   488 symmetry adapted basis functions of A   symmetry.
   488 basis functions,   764 primitive gaussians,   505 cartesian basis functions
    66 alpha electrons       66 beta electrons
       nuclear repulsion energy      1431.9311166497 Hartrees.
 IExCor= 1009 DFT=T Ex+Corr=PBE1PBE ExCW=0 ScaHFX=  0.250000
 ScaDFX=  0.750000  0.750000  1.000000  1.000000 ScalE2=  1.000000  1.000000
 IRadAn=      0 IRanWt=     -1 IRanGd=            0 ICorTp=0 IEmpDi=131
 NAtoms=   36 NActive=   36 NUniq=   36 SFac= 1.00D+00 NAtFMM=   60 NAOKFM=F Big=F
 Integral buffers will be    131072 words long.
 Raffenetti 2 integral format.
 Two-electron integral symmetry is turned on.
 R6Disp:  Grimme-D3 Dispersion energy=       -0.0251701460 Hartrees.
 Nuclear repulsion after empirical dispersion term =     1431.9059465037 Hartrees.
 Leave Link  301 at Mon Jan  9 23:30:02 2017, MaxMem= 13421772800 cpu:         2.1
 (Enter /share/apps//g09/l302.exe)
 NPDir=0 NMtPBC=     1 NCelOv=     1 NCel=       1 NClECP=     1 NCelD=      1
         NCelK=      1 NCelE2=     1 NClLst=     1 CellRange=     0.0.
 One-electron integrals computed using PRISM.
 NBasis=   488 RedAO= T EigKep=  2.36D-06  NBF=   488
 NBsUse=   488 1.00D-06 EigRej= -1.00D+00 NBFU=   488
 Precomputing XC quadrature grid using
 IXCGrd= 4 IRadAn=           0 IRanWt=          -1 IRanGd=           0 AccXCQ= 0.00D+00.
 Generated NRdTot=       0 NPtTot=           0 NUsed=           0 NTot=          32
 NSgBfM=   504   504   504   504   504 MxSgAt=    36 MxSgA2=    36.
 Leave Link  302 at Mon Jan  9 23:30:03 2017, MaxMem= 13421772800 cpu:        13.0
 (Enter /share/apps//g09/l303.exe)
 DipDrv:  MaxL=1.
 Leave Link  303 at Mon Jan  9 23:30:04 2017, MaxMem= 13421772800 cpu:         6.2
 (Enter /share/apps//g09/l401.exe)
 ExpMin= 4.38D-02 ExpMax= 8.59D+03 ExpMxC= 1.30D+03 IAcc=2 IRadAn=         4 AccDes= 0.00D+00
 Harris functional with IExCor= 1009 and IRadAn=       4 diagonalized for initial guess.
 HarFok:  IExCor= 1009 AccDes= 0.00D+00 IRadAn=         4 IDoV= 1 UseB2=F ITyADJ=14
 ICtDFT=  3500011 ScaDFX=  1.000000  1.000000  1.000000  1.000000
 FoFCou: FMM=F IPFlag=           0 FMFlag=      100000 FMFlg1=           0
         NFxFlg=           0 DoJE=T BraDBF=F KetDBF=T FulRan=T
         wScrn=  0.000000 ICntrl=     500 IOpCl=  0 I1Cent=   200000004 NGrid=           0
         NMat0=    1 NMatS0=      1 NMatT0=    0 NMatD0=    1 NMtDS0=    0 NMtDT0=    0
 Petite list used in FoFCou.
 Harris En= -881.100010207091    
 JPrj=0 DoOrth=F DoCkMO=F.
 Leave Link  401 at Mon Jan  9 23:30:05 2017, MaxMem= 13421772800 cpu:        24.1
 (Enter /share/apps//g09/l502.exe)
 Closed shell SCF:
 Using DIIS extrapolation, IDIIS=  1040.
 Integral symmetry usage will be decided dynamically.
 Keep R1 ints in memory in canonical form, NReq=7183787934.
 IVT=      797493 IEndB=      797493 NGot= 13421772800 MDV=  6302761722
 LenX=  6302761722 LenY=  6302506192
 Requested convergence on RMS density matrix=1.00D-08 within 128 cycles.
 Requested convergence on MAX density matrix=1.00D-06.
 Requested convergence on             energy=1.00D-06.
 No special actions if energy rises.
 FoFCou: FMM=F IPFlag=           0 FMFlag=           0 FMFlg1=           0
         NFxFlg=           0 DoJE=F BraDBF=F KetDBF=F FulRan=T
         wScrn=  0.000000 ICntrl=     600 IOpCl=  0 I1Cent=           0 NGrid=           0
         NMat0=    1 NMatS0= 119316 NMatT0=    0 NMatD0=    1 NMtDS0=    0 NMtDT0=    0
 Symmetry not used in FoFCou.

 Cycle   1  Pass 1  IDiag  1:
 E= -880.620411871746    
 DIIS: error= 1.57D-02 at cycle   1 NSaved=   1.
 NSaved= 1 IEnMin= 1 EnMin= -880.620411871746     IErMin= 1 ErrMin= 1.57D-02
 ErrMax= 1.57D-02  0.00D+00 EMaxC= 1.00D-01 BMatC= 4.02D-01 BMatP= 4.02D-01
 IDIUse=3 WtCom= 8.43D-01 WtEn= 1.57D-01
 Coeff-Com:  0.100D+01
 Coeff-En:   0.100D+01
 Coeff:      0.100D+01
 Gap=     0.246 Goal=   None    Shift=    0.000
 GapD=    0.246 DampG=1.000 DampE=0.500 DampFc=0.5000 IDamp=-1.
 Damping current iteration by 5.00D-01
 RMSDP=7.95D-03 MaxDP=7.65D-01              OVMax= 2.49D-01

 Cycle   2  Pass 1  IDiag  1:
 E= -880.726615022488     Delta-E=       -0.106203150743 Rises=F Damp=T
 DIIS: error= 8.32D-03 at cycle   2 NSaved=   2.
 NSaved= 2 IEnMin= 2 EnMin= -880.726615022488     IErMin= 2 ErrMin= 8.32D-03
 ErrMax= 8.32D-03  0.00D+00 EMaxC= 1.00D-01 BMatC= 5.42D-02 BMatP= 4.02D-01
 IDIUse=3 WtCom= 9.17D-01 WtEn= 8.32D-02
 Coeff-Com:  0.118D+00 0.882D+00
 Coeff-En:   0.230D+00 0.770D+00
 Coeff:      0.127D+00 0.873D+00
 Gap=     0.298 Goal=   None    Shift=    0.000
 RMSDP=4.73D-03 MaxDP=1.01D+00 DE=-1.06D-01 OVMax= 1.35D-01

 Cycle   3  Pass 1  IDiag  1:
 E= -880.868401497516     Delta-E=       -0.141786475027 Rises=F Damp=F
 DIIS: error= 1.22D-02 at cycle   3 NSaved=   3.
 NSaved= 3 IEnMin= 3 EnMin= -880.868401497516     IErMin= 2 ErrMin= 8.32D-03
 ErrMax= 1.22D-02  0.00D+00 EMaxC= 1.00D-01 BMatC= 6.10D-02 BMatP= 5.42D-02
 IDIUse=2 WtCom= 0.00D+00 WtEn= 1.00D+00
 Coeff-En:   0.000D+00 0.000D+00 0.100D+01
 Coeff:      0.000D+00 0.000D+00 0.100D+01
 Gap=     0.244 Goal=   None    Shift=    0.000
 RMSDP=3.99D-03 MaxDP=4.45D-01 DE=-1.42D-01 OVMax= 1.75D-01

 Cycle   4  Pass 1  IDiag  1:
 E= -880.684817465479     Delta-E=        0.183584032037 Rises=F Damp=F
 DIIS: error= 2.84D-02 at cycle   4 NSaved=   4.
 NSaved= 4 IEnMin= 3 EnMin= -880.868401497516     IErMin= 2 ErrMin= 8.32D-03
 ErrMax= 2.84D-02  0.00D+00 EMaxC= 1.00D-01 BMatC= 3.09D-01 BMatP= 5.42D-02
 IDIUse=2 WtCom= 0.00D+00 WtEn= 1.00D+00
 Coeff-En:   0.000D+00 0.000D+00 0.782D+00 0.218D+00
 Coeff:      0.000D+00 0.000D+00 0.782D+00 0.218D+00
 Gap=     0.237 Goal=   None    Shift=    0.000
 RMSDP=2.37D-03 MaxDP=3.50D-01 DE= 1.84D-01 OVMax= 9.17D-02

 Cycle   5  Pass 1  IDiag  1:
 E= -880.898303727821     Delta-E=       -0.213486262342 Rises=F Damp=F
 DIIS: error= 6.92D-03 at cycle   5 NSaved=   5.
 NSaved= 5 IEnMin= 5 EnMin= -880.898303727821     IErMin= 5 ErrMin= 6.92D-03
 ErrMax= 6.92D-03  0.00D+00 EMaxC= 1.00D-01 BMatC= 2.14D-02 BMatP= 5.42D-02
 IDIUse=3 WtCom= 9.31D-01 WtEn= 6.92D-02
 Coeff-Com:  0.484D-02 0.737D-02 0.341D+00-0.265D-01 0.673D+00
 Coeff-En:   0.000D+00 0.000D+00 0.303D+00 0.000D+00 0.697D+00
 Coeff:      0.451D-02 0.686D-02 0.338D+00-0.247D-01 0.675D+00
 Gap=     0.261 Goal=   None    Shift=    0.000
 RMSDP=8.88D-04 MaxDP=1.34D-01 DE=-2.13D-01 OVMax= 2.39D-02

 Cycle   6  Pass 1  IDiag  1:
 E= -880.913811642889     Delta-E=       -0.015507915068 Rises=F Damp=F
 DIIS: error= 4.60D-04 at cycle   6 NSaved=   6.
 NSaved= 6 IEnMin= 6 EnMin= -880.913811642889     IErMin= 6 ErrMin= 4.60D-04
 ErrMax= 4.60D-04  0.00D+00 EMaxC= 1.00D-01 BMatC= 2.41D-04 BMatP= 2.14D-02
 IDIUse=3 WtCom= 9.95D-01 WtEn= 4.60D-03
 Coeff-Com: -0.470D-03 0.433D-02 0.142D+00-0.495D-01 0.430D+00 0.474D+00
 Coeff-En:   0.000D+00 0.000D+00 0.000D+00 0.000D+00 0.000D+00 0.100D+01
 Coeff:     -0.467D-03 0.431D-02 0.141D+00-0.493D-01 0.428D+00 0.477D+00
 Gap=     0.246 Goal=   None    Shift=    0.000
 RMSDP=1.05D-04 MaxDP=1.18D-02 DE=-1.55D-02 OVMax= 2.01D-03

 Cycle   7  Pass 1  IDiag  1:
 E= -880.913974877865     Delta-E=       -0.000163234976 Rises=F Damp=F
 DIIS: error= 9.20D-05 at cycle   7 NSaved=   7.
 NSaved= 7 IEnMin= 7 EnMin= -880.913974877865     IErMin= 7 ErrMin= 9.20D-05
 ErrMax= 9.20D-05  0.00D+00 EMaxC= 1.00D-01 BMatC= 1.13D-05 BMatP= 2.41D-04
 IDIUse=1 WtCom= 1.00D+00 WtEn= 0.00D+00
 Coeff-Com: -0.621D-03 0.175D-02 0.569D-01-0.275D-01 0.197D+00 0.249D+00
 Coeff-Com:  0.524D+00
 Coeff:     -0.621D-03 0.175D-02 0.569D-01-0.275D-01 0.197D+00 0.249D+00
 Coeff:      0.524D+00
 Gap=     0.246 Goal=   None    Shift=    0.000
 RMSDP=2.42D-05 MaxDP=2.81D-03 DE=-1.63D-04 OVMax= 3.93D-04

 Cycle   8  Pass 1  IDiag  1:
 E= -880.913982494652     Delta-E=       -0.000007616787 Rises=F Damp=F
 DIIS: error= 4.39D-05 at cycle   8 NSaved=   8.
 NSaved= 8 IEnMin= 8 EnMin= -880.913982494652     IErMin= 8 ErrMin= 4.39D-05
 ErrMax= 4.39D-05  0.00D+00 EMaxC= 1.00D-01 BMatC= 1.07D-06 BMatP= 1.13D-05
 IDIUse=1 WtCom= 1.00D+00 WtEn= 0.00D+00
 Coeff-Com:  0.947D-04-0.358D-03 0.733D-02-0.466D-02 0.263D-01 0.341D-01
 Coeff-Com:  0.243D+00 0.694D+00
 Coeff:      0.947D-04-0.358D-03 0.733D-02-0.466D-02 0.263D-01 0.341D-01
 Coeff:      0.243D+00 0.694D+00
 Gap=     0.246 Goal=   None    Shift=    0.000
 RMSDP=8.60D-06 MaxDP=1.23D-03 DE=-7.62D-06 OVMax= 1.73D-04

 Cycle   9  Pass 1  IDiag  1:
 E= -880.913983284368     Delta-E=       -0.000000789717 Rises=F Damp=F
 DIIS: error= 9.19D-06 at cycle   9 NSaved=   9.
 NSaved= 9 IEnMin= 9 EnMin= -880.913983284368     IErMin= 9 ErrMin= 9.19D-06
 ErrMax= 9.19D-06  0.00D+00 EMaxC= 1.00D-01 BMatC= 5.16D-08 BMatP= 1.07D-06
 IDIUse=1 WtCom= 1.00D+00 WtEn= 0.00D+00
 Coeff-Com:  0.859D-04-0.312D-03 0.132D-02-0.102D-02 0.448D-02 0.480D-02
 Coeff-Com:  0.909D-01 0.329D+00 0.571D+00
 Coeff:      0.859D-04-0.312D-03 0.132D-02-0.102D-02 0.448D-02 0.480D-02
 Coeff:      0.909D-01 0.329D+00 0.571D+00
 Gap=     0.246 Goal=   None    Shift=    0.000
 RMSDP=2.94D-06 MaxDP=3.88D-04 DE=-7.90D-07 OVMax= 3.49D-05

 Cycle  10  Pass 1  IDiag  1:
 E= -880.913983324921     Delta-E=       -0.000000040553 Rises=F Damp=F
 DIIS: error= 2.06D-06 at cycle  10 NSaved=  10.
 NSaved=10 IEnMin=10 EnMin= -880.913983324921     IErMin=10 ErrMin= 2.06D-06
 ErrMax= 2.06D-06  0.00D+00 EMaxC= 1.00D-01 BMatC= 5.04D-09 BMatP= 5.16D-08
 IDIUse=1 WtCom= 1.00D+00 WtEn= 0.00D+00
 Coeff-Com:  0.145D-04-0.602D-04-0.366D-03 0.278D-04-0.100D-02-0.198D-02
 Coeff-Com:  0.991D-02 0.601D-01 0.260D+00 0.673D+00
 Coeff:      0.145D-04-0.602D-04-0.366D-03 0.278D-04-0.100D-02-0.198D-02
 Coeff:      0.991D-02 0.601D-01 0.260D+00 0.673D+00
 Gap=     0.246 Goal=   None    Shift=    0.000
 RMSDP=6.18D-07 MaxDP=5.46D-05 DE=-4.06D-08 OVMax= 1.06D-05

 Cycle  11  Pass 1  IDiag  1:
 E= -880.913983328857     Delta-E=       -0.000000003936 Rises=F Damp=F
 DIIS: error= 5.83D-07 at cycle  11 NSaved=  11.
 NSaved=11 IEnMin=11 EnMin= -880.913983328857     IErMin=11 ErrMin= 5.83D-07
 ErrMax= 5.83D-07  0.00D+00 EMaxC= 1.00D-01 BMatC= 4.99D-10 BMatP= 5.04D-09
 IDIUse=1 WtCom= 1.00D+00 WtEn= 0.00D+00
 Coeff-Com: -0.531D-06-0.273D-05-0.343D-03 0.115D-03-0.102D-02-0.157D-02
 Coeff-Com: -0.277D-02 0.461D-02 0.844D-01 0.321D+00 0.596D+00
 Coeff:     -0.531D-06-0.273D-05-0.343D-03 0.115D-03-0.102D-02-0.157D-02
 Coeff:     -0.277D-02 0.461D-02 0.844D-01 0.321D+00 0.596D+00
 Gap=     0.246 Goal=   None    Shift=    0.000
 RMSDP=1.96D-07 MaxDP=3.04D-05 DE=-3.94D-09 OVMax= 4.20D-06

 Cycle  12  Pass 1  IDiag  1:
 E= -880.913983329223     Delta-E=       -0.000000000366 Rises=F Damp=F
 DIIS: error= 2.36D-07 at cycle  12 NSaved=  12.
 NSaved=12 IEnMin=12 EnMin= -880.913983329223     IErMin=12 ErrMin= 2.36D-07
 ErrMax= 2.36D-07  0.00D+00 EMaxC= 1.00D-01 BMatC= 5.63D-11 BMatP= 4.99D-10
 IDIUse=1 WtCom= 1.00D+00 WtEn= 0.00D+00
 Coeff-Com: -0.377D-05 0.899D-05-0.112D-03 0.378D-04-0.300D-03-0.415D-03
 Coeff-Com: -0.231D-02-0.439D-02 0.101D-01 0.724D-01 0.286D+00 0.639D+00
 Coeff:     -0.377D-05 0.899D-05-0.112D-03 0.378D-04-0.300D-03-0.415D-03
 Coeff:     -0.231D-02-0.439D-02 0.101D-01 0.724D-01 0.286D+00 0.639D+00
 Gap=     0.246 Goal=   None    Shift=    0.000
 RMSDP=8.04D-08 MaxDP=1.48D-05 DE=-3.66D-10 OVMax= 1.20D-06

 Cycle  13  Pass 1  IDiag  1:
 E= -880.913983329275     Delta-E=       -0.000000000052 Rises=F Damp=F
 DIIS: error= 5.86D-08 at cycle  13 NSaved=  13.
 NSaved=13 IEnMin=13 EnMin= -880.913983329275     IErMin=13 ErrMin= 5.86D-08
 ErrMax= 5.86D-08  0.00D+00 EMaxC= 1.00D-01 BMatC= 2.90D-12 BMatP= 5.63D-11
 IDIUse=1 WtCom= 1.00D+00 WtEn= 0.00D+00
 Coeff-Com: -0.130D-05 0.316D-05-0.724D-05 0.356D-05-0.119D-04-0.618D-05
 Coeff-Com: -0.540D-03-0.193D-02-0.368D-02-0.262D-02 0.512D-01 0.236D+00
 Coeff-Com:  0.722D+00
 Coeff:     -0.130D-05 0.316D-05-0.724D-05 0.356D-05-0.119D-04-0.618D-05
 Coeff:     -0.540D-03-0.193D-02-0.368D-02-0.262D-02 0.512D-01 0.236D+00
 Coeff:      0.722D+00
 Gap=     0.246 Goal=   None    Shift=    0.000
 RMSDP=2.01D-08 MaxDP=2.83D-06 DE=-5.18D-11 OVMax= 4.80D-07

 Cycle  14  Pass 1  IDiag  1:
 E= -880.913983329266     Delta-E=        0.000000000009 Rises=F Damp=F
 DIIS: error= 1.75D-08 at cycle  14 NSaved=  14.
 NSaved=14 IEnMin=13 EnMin= -880.913983329275     IErMin=14 ErrMin= 1.75D-08
 ErrMax= 1.75D-08  0.00D+00 EMaxC= 1.00D-01 BMatC= 4.78D-13 BMatP= 2.90D-12
 IDIUse=1 WtCom= 1.00D+00 WtEn= 0.00D+00
 Coeff-Com: -0.250D-06 0.697D-06 0.437D-05-0.792D-06 0.134D-04 0.189D-04
 Coeff-Com: -0.530D-04-0.542D-03-0.266D-02-0.820D-02-0.305D-02 0.506D-01
 Coeff-Com:  0.342D+00 0.622D+00
 Coeff:     -0.250D-06 0.697D-06 0.437D-05-0.792D-06 0.134D-04 0.189D-04
 Coeff:     -0.530D-04-0.542D-03-0.266D-02-0.820D-02-0.305D-02 0.506D-01
 Coeff:      0.342D+00 0.622D+00
 Gap=     0.246 Goal=   None    Shift=    0.000
 RMSDP=1.34D-08 MaxDP=2.22D-06 DE= 8.64D-12 OVMax= 9.69D-08

 Cycle  15  Pass 1  IDiag  1:
 E= -880.913983329255     Delta-E=        0.000000000011 Rises=F Damp=F
 DIIS: error= 6.88D-09 at cycle  15 NSaved=  15.
 NSaved=15 IEnMin=13 EnMin= -880.913983329275     IErMin=15 ErrMin= 6.88D-09
 ErrMax= 6.88D-09  0.00D+00 EMaxC= 1.00D-01 BMatC= 2.76D-14 BMatP= 4.78D-13
 IDIUse=1 WtCom= 1.00D+00 WtEn= 0.00D+00
 Coeff-Com: -0.774D-08 0.927D-07 0.206D-05-0.537D-06 0.554D-05 0.529D-05
 Coeff-Com:  0.134D-04-0.103D-03-0.794D-03-0.305D-02-0.394D-02 0.716D-02
 Coeff-Com:  0.925D-01 0.246D+00 0.663D+00
 Coeff:     -0.774D-08 0.927D-07 0.206D-05-0.537D-06 0.554D-05 0.529D-05
 Coeff:      0.134D-04-0.103D-03-0.794D-03-0.305D-02-0.394D-02 0.716D-02
 Coeff:      0.925D-01 0.246D+00 0.663D+00
 Gap=     0.246 Goal=   None    Shift=    0.000
 RMSDP=4.95D-09 MaxDP=7.53D-07 DE= 1.14D-11 OVMax= 3.37D-08

 SCF Done:  E(RPBE1PBE) =  -880.913983329     A.U. after   15 cycles
            NFock= 15  Conv=0.50D-08     -V/T= 2.0044
 KE= 8.770944547834D+02 PE=-4.907298015275D+03 EE= 1.717383630659D+03
 Leave Link  502 at Mon Jan  9 23:33:41 2017, MaxMem= 13421772800 cpu:      1014.1
 (Enter /share/apps//g09/l601.exe)
 Copying SCF densities to generalized density rwf, IOpCl= 0 IROHF=0.

 **********************************************************************

            Population analysis using the SCF density.

 **********************************************************************

 Orbital symmetries:
       Occupied  (A) (A) (A) (A) (A) (A) (A) (A) (A) (A) (A) (A)
                 (A) (A) (A) (A) (A) (A) (A) (A) (A) (A) (A) (A)
                 (A) (A) (A) (A) (A) (A) (A) (A) (A) (A) (A) (A)
                 (A) (A) (A) (A) (A) (A) (A) (A) (A) (A) (A) (A)
                 (A) (A) (A) (A) (A) (A) (A) (A) (A) (A) (A) (A)
                 (A) (A) (A) (A) (A) (A)
       Virtual   (A) (A) (A) (A) (A) (A) (A) (A) (A) (A) (A) (A)
                 (A) (A) (A) (A) (A) (A) (A) (A) (A) (A) (A) (A)
                 (A) (A) (A) (A) (A) (A) (A) (A) (A) (A) (A) (A)
                 (A) (A) (A) (A) (A) (A) (A) (A) (A) (A) (A) (A)
                 (A) (A) (A) (A) (A) (A) (A) (A) (A) (A) (A) (A)
                 (A) (A) (A) (A) (A) (A) (A) (A) (A) (A) (A) (A)
                 (A) (A) (A) (A) (A) (A) (A) (A) (A) (A) (A) (A)
                 (A) (A) (A) (A) (A) (A) (A) (A) (A) (A) (A) (A)
                 (A) (A) (A) (A) (A) (A) (A) (A) (A) (A) (A) (A)
                 (A) (A) (A) (A) (A) (A) (A) (A) (A) (A) (A) (A)
                 (A) (A) (A) (A) (A) (A) (A) (A) (A) (A) (A) (A)
                 (A) (A) (A) (A) (A) (A) (A) (A) (A) (A) (A) (A)
                 (A) (A) (A) (A) (A) (A) (A) (A) (A) (A) (A) (A)
                 (A) (A) (A) (A) (A) (A) (A) (A) (A) (A) (A) (A)
                 (A) (A) (A) (A) (A) (A) (A) (A) (A) (A) (A) (A)
                 (A) (A) (A) (A) (A) (A) (A) (A) (A) (A) (A) (A)
                 (A) (A) (A) (A) (A) (A) (A) (A) (A) (A) (A) (A)
                 (A) (A) (A) (A) (A) (A) (A) (A) (A) (A) (A) (A)
                 (A) (A) (A) (A) (A) (A) (A) (A) (A) (A) (A) (A)
                 (A) (A) (A) (A) (A) (A) (A) (A) (A) (A) (A) (A)
                 (A) (A) (A) (A) (A) (A) (A) (A) (A) (A) (A) (A)
                 (A) (A) (A) (A) (A) (A) (A) (A) (A) (A) (A) (A)
                 (A) (A) (A) (A) (A) (A) (A) (A) (A) (A) (A) (A)
                 (A) (A) (A) (A) (A) (A) (A) (A) (A) (A) (A) (A)
                 (A) (A) (A) (A) (A) (A) (A) (A) (A) (A) (A) (A)
                 (A) (A) (A) (A) (A) (A) (A) (A) (A) (A) (A) (A)
                 (A) (A) (A) (A) (A) (A) (A) (A) (A) (A) (A) (A)
                 (A) (A) (A) (A) (A) (A) (A) (A) (A) (A) (A) (A)
                 (A) (A) (A) (A) (A) (A) (A) (A) (A) (A) (A) (A)
                 (A) (A) (A) (A) (A) (A) (A) (A) (A) (A) (A) (A)
                 (A) (A) (A) (A) (A) (A) (A) (A) (A) (A) (A) (A)
                 (A) (A) (A) (A) (A) (A) (A) (A) (A) (A) (A) (A)
                 (A) (A) (A) (A) (A) (A) (A) (A) (A) (A) (A) (A)
                 (A) (A) (A) (A) (A) (A) (A) (A) (A) (A) (A) (A)
                 (A) (A) (A) (A) (A) (A) (A) (A) (A) (A) (A) (A)
                 (A) (A)
 The electronic state is 1-A.
 Alpha  occ. eigenvalues --  -19.48015 -19.41531 -19.38015 -19.35751 -19.34591
 Alpha  occ. eigenvalues --  -19.31861 -10.52307 -10.47931 -10.46141 -10.45672
 Alpha  occ. eigenvalues --  -10.45463 -10.44114 -10.43160 -10.42856 -10.38888
 Alpha  occ. eigenvalues --  -10.38041 -10.34065  -1.32977  -1.26299  -1.25759
 Alpha  occ. eigenvalues --   -1.21342  -1.19782  -1.17353  -0.99478  -0.97266
 Alpha  occ. eigenvalues --   -0.93407  -0.89497  -0.86786  -0.84989  -0.83148
 Alpha  occ. eigenvalues --   -0.82003  -0.79907  -0.75130  -0.73685  -0.72650
 Alpha  occ. eigenvalues --   -0.69698  -0.67424  -0.67159  -0.66222  -0.65023
 Alpha  occ. eigenvalues --   -0.64216  -0.63008  -0.62044  -0.61902  -0.60970
 Alpha  occ. eigenvalues --   -0.59463  -0.59450  -0.58654  -0.58460  -0.57400
 Alpha  occ. eigenvalues --   -0.55956  -0.55323  -0.54920  -0.53019  -0.52671
 Alpha  occ. eigenvalues --   -0.52039  -0.51482  -0.51356  -0.50101  -0.48427
 Alpha  occ. eigenvalues --   -0.47472  -0.46719  -0.44790  -0.42508  -0.41707
 Alpha  occ. eigenvalues --   -0.40253
 Alpha virt. eigenvalues --   -0.15683  -0.12304  -0.11690  -0.11461  -0.10038
 Alpha virt. eigenvalues --   -0.09486  -0.08831  -0.08014  -0.07303  -0.06915
 Alpha virt. eigenvalues --   -0.06329  -0.06040  -0.05668  -0.05357  -0.04160
 Alpha virt. eigenvalues --   -0.03869  -0.03689  -0.03537  -0.02823  -0.02636
 Alpha virt. eigenvalues --   -0.01851  -0.01681  -0.01555  -0.01233  -0.00525
 Alpha virt. eigenvalues --   -0.00141   0.00212   0.00726   0.00764   0.01687
 Alpha virt. eigenvalues --    0.02119   0.02227   0.02520   0.02810   0.03494
 Alpha virt. eigenvalues --    0.03561   0.03752   0.04312   0.04463   0.04786
 Alpha virt. eigenvalues --    0.05316   0.05564   0.05881   0.06525   0.06838
 Alpha virt. eigenvalues --    0.07373   0.07486   0.07991   0.08581   0.08642
 Alpha virt. eigenvalues --    0.09082   0.09601   0.09925   0.10224   0.10575
 Alpha virt. eigenvalues --    0.11218   0.11351   0.11769   0.11871   0.11999
 Alpha virt. eigenvalues --    0.12671   0.12891   0.13125   0.13880   0.14157
 Alpha virt. eigenvalues --    0.14349   0.14647   0.15265   0.15921   0.16430
 Alpha virt. eigenvalues --    0.16810   0.17424   0.17857   0.18003   0.18338
 Alpha virt. eigenvalues --    0.18922   0.19389   0.19528   0.19664   0.21534
 Alpha virt. eigenvalues --    0.21673   0.22344   0.22699   0.23293   0.23763
 Alpha virt. eigenvalues --    0.24255   0.24920   0.25183   0.25843   0.26284
 Alpha virt. eigenvalues --    0.26762   0.27258   0.28066   0.28214   0.28824
 Alpha virt. eigenvalues --    0.28999   0.29652   0.30113   0.31071   0.31935
 Alpha virt. eigenvalues --    0.32606   0.33087   0.34069   0.34447   0.35037
 Alpha virt. eigenvalues --    0.35999   0.37006   0.37303   0.37823   0.38002
 Alpha virt. eigenvalues --    0.38744   0.39170   0.40632   0.40980   0.41710
 Alpha virt. eigenvalues --    0.42891   0.43707   0.44166   0.44979   0.46243
 Alpha virt. eigenvalues --    0.46824   0.47574   0.48199   0.49129   0.50087
 Alpha virt. eigenvalues --    0.51320   0.51520   0.51787   0.52319   0.53150
 Alpha virt. eigenvalues --    0.53390   0.53829   0.55031   0.55815   0.56307
 Alpha virt. eigenvalues --    0.56560   0.57124   0.57455   0.58162   0.58816
 Alpha virt. eigenvalues --    0.59428   0.60051   0.60535   0.61286   0.61602
 Alpha virt. eigenvalues --    0.61887   0.62723   0.63271   0.64658   0.65007
 Alpha virt. eigenvalues --    0.65822   0.67206   0.67809   0.68397   0.70368
 Alpha virt. eigenvalues --    0.73534   0.74656   0.77222   0.78251   0.81380
 Alpha virt. eigenvalues --    0.84392   0.85348   0.87007   0.88044   0.88620
 Alpha virt. eigenvalues --    0.90505   0.91714   0.92250   0.93132   0.94097
 Alpha virt. eigenvalues --    0.95611   0.97274   0.99546   1.00328   1.01807
 Alpha virt. eigenvalues --    1.03018   1.03508   1.06279   1.07095   1.08591
 Alpha virt. eigenvalues --    1.09179   1.10304   1.11935   1.12295   1.13281
 Alpha virt. eigenvalues --    1.14221   1.15578   1.16696   1.17990   1.19454
 Alpha virt. eigenvalues --    1.20700   1.22333   1.23690   1.24574   1.24980
 Alpha virt. eigenvalues --    1.26163   1.27551   1.28283   1.29488   1.30639
 Alpha virt. eigenvalues --    1.31565   1.33019   1.33999   1.34552   1.35403
 Alpha virt. eigenvalues --    1.36216   1.37004   1.37760   1.39392   1.39648
 Alpha virt. eigenvalues --    1.40956   1.41173   1.42315   1.43754   1.44284
 Alpha virt. eigenvalues --    1.44870   1.45414   1.45698   1.46598   1.47256
 Alpha virt. eigenvalues --    1.47905   1.48686   1.49409   1.50142   1.50638
 Alpha virt. eigenvalues --    1.51275   1.52434   1.53752   1.53951   1.54553
 Alpha virt. eigenvalues --    1.55886   1.56605   1.57801   1.57888   1.59593
 Alpha virt. eigenvalues --    1.60019   1.61029   1.62770   1.63162   1.63875
 Alpha virt. eigenvalues --    1.65135   1.66263   1.67084   1.68967   1.70453
 Alpha virt. eigenvalues --    1.71003   1.71482   1.72173   1.73932   1.74040
 Alpha virt. eigenvalues --    1.74630   1.77676   1.78869   1.79239   1.80600
 Alpha virt. eigenvalues --    1.81949   1.82982   1.85874   1.88088   1.88256
 Alpha virt. eigenvalues --    1.89662   1.90912   1.92602   1.92770   1.95046
 Alpha virt. eigenvalues --    1.96229   1.98354   1.99239   2.00085   2.01431
 Alpha virt. eigenvalues --    2.02721   2.03378   2.03886   2.06262   2.07297
 Alpha virt. eigenvalues --    2.07468   2.10617   2.11571   2.13158   2.14144
 Alpha virt. eigenvalues --    2.17106   2.17749   2.18767   2.20831   2.25464
 Alpha virt. eigenvalues --    2.27210   2.30720   2.33066   2.34169   2.34464
 Alpha virt. eigenvalues --    2.35427   2.36259   2.37641   2.39122   2.39680
 Alpha virt. eigenvalues --    2.40412   2.41265   2.41714   2.42878   2.44522
 Alpha virt. eigenvalues --    2.45687   2.46607   2.47176   2.47517   2.48072
 Alpha virt. eigenvalues --    2.48294   2.48886   2.52096   2.52824   2.55106
 Alpha virt. eigenvalues --    2.55914   2.56840   2.57760   2.58855   2.61543
 Alpha virt. eigenvalues --    2.64874   2.65508   2.67565   2.69133   2.70826
 Alpha virt. eigenvalues --    2.72642   2.73700   2.74835   2.75810   2.77549
 Alpha virt. eigenvalues --    2.78890   2.80202   2.81549   2.82352   2.83136
 Alpha virt. eigenvalues --    2.86085   2.86260   2.88344   2.89320   2.91140
 Alpha virt. eigenvalues --    2.92506   2.94053   2.96152   2.97213   2.99814
 Alpha virt. eigenvalues --    3.00342   3.01126   3.01992   3.03385   3.05922
 Alpha virt. eigenvalues --    3.07806   3.10078   3.10446   3.10612   3.11257
 Alpha virt. eigenvalues --    3.13324   3.14493   3.17449   3.19810   3.20196
 Alpha virt. eigenvalues --    3.25787   3.28865   3.32131   3.39055   3.46617
 Alpha virt. eigenvalues --    3.56819   3.58851   3.62044   3.66998   3.67581
 Alpha virt. eigenvalues --    3.68335   3.69309   3.70072   3.70385   3.71883
 Alpha virt. eigenvalues --    3.76911   3.80191   3.82530   3.83217   3.86727
 Alpha virt. eigenvalues --    3.89804   3.93553   3.96585   3.97153   3.99816
 Alpha virt. eigenvalues --    4.01531   4.05702   4.07739   4.09830   4.13434
 Alpha virt. eigenvalues --    4.17381   4.26185   5.00220   5.01960   5.04228
 Alpha virt. eigenvalues --    5.04775   5.05285   5.08081   5.16191   5.20697
 Alpha virt. eigenvalues --    5.28648   5.29714   5.32710   5.35928   5.40843
 Alpha virt. eigenvalues --    5.50562   5.56569   5.57840   5.63005   5.79433
 Alpha virt. eigenvalues --   23.69267  23.75012  23.76839  23.81567  23.82651
 Alpha virt. eigenvalues --   23.83051  23.85977  23.89157  23.90133  23.91888
 Alpha virt. eigenvalues --   23.94459  49.90971  49.91711  49.93553  49.97656
 Alpha virt. eigenvalues --   50.00637  50.01339
          Condensed to atoms (all electrons):
               1          2          3          4          5          6
     1  C    8.326033  -2.194532   0.935473  -1.715233   0.896642  -0.428796
     2  C   -2.194532  12.383629  -2.863941   1.596803  -1.924388  -0.589608
     3  C    0.935473  -2.863941  14.596405  -8.124219   3.164074  -1.443135
     4  C   -1.715233   1.596803  -8.124219  23.002936  -9.769480   2.436763
     5  C    0.896642  -1.924388   3.164074  -9.769480  19.930524  -7.261013
     6  C   -0.428796  -0.589608  -1.443135   2.436763  -7.261013  14.125369
     7  O    0.029090   0.121938  -0.093901   0.017830  -0.002551   0.274828
     8  O    0.137219  -0.309899  -0.100442  -0.146993   0.243586  -0.023693
     9  O    0.091894  -0.175802   0.321883  -0.621292   0.193275  -0.080149
    10  O   -0.328690  -0.037329   0.242149   0.026054   0.184954  -0.539663
    11  H    0.398132  -0.113399   0.004327   0.025256   0.033769  -0.006137
    12  H    0.450286  -0.042185  -0.000097  -0.007547  -0.004774   0.003738
    13  H   -0.003676   0.371411   0.011578  -0.026512   0.049199  -0.019090
    14  H   -0.006012  -0.140615   0.388882   0.032888   0.043304   0.016486
    15  H    0.006584  -0.008269  -0.055706   0.347793   0.008887   0.028156
    16  H    0.006127  -0.023900   0.006913  -0.099202   0.371165   0.050716
    17  H    0.045124  -0.018476   0.024232  -0.034808   0.059233   0.298021
    18  O    0.004362  -0.036513  -0.018143  -0.014599   0.309013  -0.177229
    19  C   -0.236287   0.051381   0.044062   0.057549  -0.108008  -0.155305
    20  H    0.028587  -0.012021   0.002240  -0.011247   0.013730  -0.008337
    21  H   -0.008509   0.011586  -0.008869   0.002214   0.007514  -0.018406
    22  H    0.003162  -0.001292   0.003300  -0.000838  -0.014694   0.035903
    23  C   -0.015140   0.047570  -0.111051   0.292986  -0.438160   0.021465
    24  H   -0.000147  -0.001029  -0.017587   0.030796  -0.085587   0.060025
    25  H    0.000548  -0.001298   0.058804  -0.009499  -0.017789  -0.035729
    26  H    0.000080   0.001140  -0.009328  -0.007125   0.053812  -0.003939
    27  C    0.059669  -0.147004  -0.112574  -0.540576   0.164855   0.077733
    28  H   -0.008062   0.011124   0.048595  -0.036401  -0.022729   0.000156
    29  H    0.001754  -0.002729   0.024796  -0.059329   0.031064  -0.004907
    30  H   -0.000694   0.001641  -0.032996   0.074928  -0.008247   0.005678
    31  C    0.071107   0.146973  -0.468397  -0.234288   0.025737  -0.026345
    32  O   -0.010703  -0.086978   0.118521   0.058814   0.005318   0.002291
    33  C   -0.111491   0.056725   0.172888   0.002432   0.006564   0.001156
    34  H    0.005291  -0.012809   0.005014   0.007958  -0.001539   0.001011
    35  H   -0.000269  -0.000576  -0.025535   0.005637   0.001293  -0.000696
    36  H   -0.000642   0.004635  -0.002035  -0.001723  -0.000089   0.000015
               7          8          9         10         11         12
     1  C    0.029090   0.137219   0.091894  -0.328690   0.398132   0.450286
     2  C    0.121938  -0.309899  -0.175802  -0.037329  -0.113399  -0.042185
     3  C   -0.093901  -0.100442   0.321883   0.242149   0.004327  -0.000097
     4  C    0.017830  -0.146993  -0.621292   0.026054   0.025256  -0.007547
     5  C   -0.002551   0.243586   0.193275   0.184954   0.033769  -0.004774
     6  C    0.274828  -0.023693  -0.080149  -0.539663  -0.006137   0.003738
     7  O    7.629842   0.021704   0.013968  -0.075051   0.008278  -0.001275
     8  O    0.021704   8.164476   0.062504  -0.027646  -0.001731   0.002678
     9  O    0.013968   0.062504   8.519112   0.005244   0.006037  -0.000147
    10  O   -0.075051  -0.027646   0.005244   8.532552  -0.010173  -0.065379
    11  H    0.008278  -0.001731   0.006037  -0.010173   0.380622  -0.020817
    12  H   -0.001275   0.002678  -0.000147  -0.065379  -0.020817   0.435117
    13  H   -0.033677   0.000268  -0.006429   0.007788   0.002515  -0.005406
    14  H    0.012908   0.012588  -0.029781  -0.003694   0.000488   0.000015
    15  H   -0.000372  -0.048754   0.005906  -0.002350  -0.000172   0.000057
    16  H    0.006521   0.007722  -0.000566   0.008612  -0.000284   0.000020
    17  H   -0.048159   0.000623   0.000390  -0.029049  -0.000209  -0.000098
    18  O    0.018129   0.010877  -0.000911   0.003044  -0.000056   0.000156
    19  C    0.000996  -0.010050  -0.000014   0.082669   0.000309  -0.001217
    20  H   -0.000660  -0.000088   0.000025  -0.035646  -0.000226   0.000212
    21  H    0.005468  -0.000067  -0.000008  -0.053475  -0.000137   0.003821
    22  H   -0.001889  -0.000104   0.000037  -0.042447   0.000023  -0.000595
    23  C   -0.001773  -0.006973  -0.002769  -0.015862   0.000071   0.000139
    24  H    0.000439   0.001055  -0.000008  -0.000461  -0.000001   0.000000
    25  H   -0.000455  -0.003396   0.000010   0.000523  -0.000004  -0.000000
    26  H   -0.000061   0.000072   0.000010   0.000086  -0.000000   0.000000
    27  C    0.005725   0.201177   0.036005   0.005140   0.004126   0.000224
    28  H    0.000050  -0.030906  -0.006994  -0.000291   0.000595  -0.000005
    29  H    0.000005  -0.053276   0.000865  -0.000542  -0.000129   0.000004
    30  H    0.000044  -0.078383   0.001667  -0.001114  -0.000083   0.000000
    31  C   -0.019281  -0.002504  -0.029747   0.005097  -0.004282   0.000717
    32  O   -0.002880  -0.002349  -0.165308  -0.000411  -0.000082  -0.000033
    33  C   -0.005010  -0.023561  -0.302770   0.000214  -0.001111   0.000771
    34  H    0.000029  -0.000030   0.000322   0.000041  -0.000175   0.000004
    35  H   -0.000003   0.000114  -0.001448  -0.000001   0.000025  -0.000000
    36  H   -0.000005   0.000030   0.015087   0.000000   0.000005  -0.000000
              13         14         15         16         17         18
     1  C   -0.003676  -0.006012   0.006584   0.006127   0.045124   0.004362
     2  C    0.371411  -0.140615  -0.008269  -0.023900  -0.018476  -0.036513
     3  C    0.011578   0.388882  -0.055706   0.006913   0.024232  -0.018143
     4  C   -0.026512   0.032888   0.347793  -0.099202  -0.034808  -0.014599
     5  C    0.049199   0.043304   0.008887   0.371165   0.059233   0.309013
     6  C   -0.019090   0.016486   0.028156   0.050716   0.298021  -0.177229
     7  O   -0.033677   0.012908  -0.000372   0.006521  -0.048159   0.018129
     8  O    0.000268   0.012588  -0.048754   0.007722   0.000623   0.010877
     9  O   -0.006429  -0.029781   0.005906  -0.000566   0.000390  -0.000911
    10  O    0.007788  -0.003694  -0.002350   0.008612  -0.029049   0.003044
    11  H    0.002515   0.000488  -0.000172  -0.000284  -0.000209  -0.000056
    12  H   -0.005406   0.000015   0.000057   0.000020  -0.000098   0.000156
    13  H    0.386218  -0.004935  -0.000083  -0.000020   0.000260  -0.000103
    14  H   -0.004935   0.412378   0.000112  -0.000179  -0.000384   0.003900
    15  H   -0.000083   0.000112   0.480417  -0.003653  -0.000102   0.002489
    16  H   -0.000020  -0.000179  -0.003653   0.460816  -0.002322  -0.036784
    17  H    0.000260  -0.000384  -0.000102  -0.002322   0.421163   0.012419
    18  O   -0.000103   0.003900   0.002489  -0.036784   0.012419   7.894522
    19  C   -0.003388  -0.000956  -0.000576   0.002664  -0.008863  -0.004741
    20  H    0.000021  -0.000005   0.000006  -0.000110   0.000015  -0.000137
    21  H    0.000009   0.000007   0.000003  -0.000050   0.001741   0.000114
    22  H    0.000014  -0.000003  -0.000001   0.000037   0.000295   0.000112
    23  C   -0.000307  -0.000640   0.004850  -0.000574  -0.000607   0.138981
    24  H   -0.000001   0.000007  -0.000052   0.011500  -0.000466  -0.040056
    25  H    0.000002  -0.000277   0.002603  -0.002655   0.000135  -0.030362
    26  H   -0.000001  -0.000007  -0.000208  -0.000094  -0.000034  -0.065800
    27  C    0.000775   0.004379   0.004849   0.003551  -0.000350  -0.001135
    28  H   -0.000021  -0.000580  -0.002251   0.000119   0.000001   0.000277
    29  H   -0.000004   0.000223   0.011980  -0.000261  -0.000003  -0.000515
    30  H   -0.000003   0.000049   0.000000  -0.000255  -0.000005   0.000071
    31  C   -0.000302  -0.024745   0.006905  -0.000148  -0.000919  -0.005468
    32  O    0.003892   0.007986  -0.000591   0.000006   0.000006  -0.000142
    33  C   -0.003432  -0.004433  -0.002165  -0.000029  -0.000055  -0.000492
    34  H   -0.000009  -0.000060  -0.000005   0.000000  -0.000000   0.000000
    35  H    0.000022  -0.000036  -0.000036  -0.000000   0.000000  -0.000006
    36  H    0.000009   0.000053   0.000005   0.000000  -0.000000  -0.000000
              19         20         21         22         23         24
     1  C   -0.236287   0.028587  -0.008509   0.003162  -0.015140  -0.000147
     2  C    0.051381  -0.012021   0.011586  -0.001292   0.047570  -0.001029
     3  C    0.044062   0.002240  -0.008869   0.003300  -0.111051  -0.017587
     4  C    0.057549  -0.011247   0.002214  -0.000838   0.292986   0.030796
     5  C   -0.108008   0.013730   0.007514  -0.014694  -0.438160  -0.085587
     6  C   -0.155305  -0.008337  -0.018406   0.035903   0.021465   0.060025
     7  O    0.000996  -0.000660   0.005468  -0.001889  -0.001773   0.000439
     8  O   -0.010050  -0.000088  -0.000067  -0.000104  -0.006973   0.001055
     9  O   -0.000014   0.000025  -0.000008   0.000037  -0.002769  -0.000008
    10  O    0.082669  -0.035646  -0.053475  -0.042447  -0.015862  -0.000461
    11  H    0.000309  -0.000226  -0.000137   0.000023   0.000071  -0.000001
    12  H   -0.001217   0.000212   0.003821  -0.000595   0.000139   0.000000
    13  H   -0.003388   0.000021   0.000009   0.000014  -0.000307  -0.000001
    14  H   -0.000956  -0.000005   0.000007  -0.000003  -0.000640   0.000007
    15  H   -0.000576   0.000006   0.000003  -0.000001   0.004850  -0.000052
    16  H    0.002664  -0.000110  -0.000050   0.000037  -0.000574   0.011500
    17  H   -0.008863   0.000015   0.001741   0.000295  -0.000607  -0.000466
    18  O   -0.004741  -0.000137   0.000114   0.000112   0.138981  -0.040056
    19  C    5.344016   0.393859   0.422161   0.389203  -0.006949   0.000267
    20  H    0.393859   0.440027  -0.021521  -0.011808  -0.000135   0.000000
    21  H    0.422161  -0.021521   0.445157  -0.021623   0.000105  -0.000001
    22  H    0.389203  -0.011808  -0.021623   0.441742   0.000049  -0.000000
    23  C   -0.006949  -0.000135   0.000105   0.000049   5.163627   0.406080
    24  H    0.000267   0.000000  -0.000001  -0.000000   0.406080   0.516220
    25  H    0.000097   0.000000  -0.000000   0.000000   0.405474  -0.041249
    26  H    0.000010  -0.000000  -0.000000   0.000000   0.408183  -0.018881
    27  C   -0.003962   0.000040   0.000022  -0.000207  -0.008708   0.001907
    28  H    0.000359  -0.000000  -0.000000  -0.000002   0.000060   0.000001
    29  H   -0.000230  -0.000000   0.000000   0.000000   0.000620  -0.000008
    30  H   -0.000530  -0.000001   0.000000  -0.000003  -0.000089  -0.000001
    31  C    0.003403  -0.000039  -0.000063  -0.000065  -0.002051  -0.000046
    32  O   -0.000015  -0.000000  -0.000000  -0.000000   0.000673  -0.000001
    33  C    0.002042  -0.000002  -0.000007  -0.000018   0.001502  -0.000005
    34  H    0.000027   0.000000  -0.000000  -0.000000  -0.000002  -0.000000
    35  H   -0.000007   0.000000   0.000000   0.000000  -0.000017  -0.000000
[...]
 .00000962,0.00004874,0.00001860,0.00006574,0.00001769,0.00006833,-0.00
 002092,0.00173300,-0.00007858,-0.00075542,-0.00011460,-0.00007540,0.00
 018343,0.00008598,-0.00008021,0.00013177,-0.00013321,0.00014111,0.0000
 4595,0.00177795,0.00161360,-0.00109961,0.00063284,0.00189803,-0.000269
 30,-0.00046663,0.00013330,0.00037848,0.00007575,-0.00001594,0.00070155
 ,-0.06751036,-0.13665215,0.55895658,0.00054169,-0.00006742,0.00035534,
 -0.00286785,-0.00131214,-0.00023981,-0.00462441,-0.00360520,-0.0014910
 3,0.00106456,-0.00048090,-0.00060520,-0.00021521,-0.00014911,-0.000208
 72,-0.00062592,-0.00025359,0.00019253,0.00100235,0.00015335,-0.0010268
 6,-0.00029418,-0.00042677,0.00105252,0.02371505,-0.01084767,0.02251923
 ,0.00021553,-0.00002942,-0.00055675,-0.00029677,-0.00000784,-0.0001780
 3,0.00011200,0.00001367,0.00016387,0.00083525,0.00065787,-0.00023738,-
 0.00027594,-0.00025496,0.00065134,0.00010216,0.00011002,-0.00011565,0.
 00006505,0.00005165,0.00006344,0.00007025,0.00005355,-0.00010864,0.000
 08077,0.00013655,0.00021459,0.00005377,-0.00003355,-0.00004898,-0.0000
 2736,-0.00001418,-0.00002268,-0.00000417,0.00001635,0.00001434,-0.0000
 0821,-0.00000827,0.00001665,0.00005873,-0.00004243,-0.00005037,0.00000
 045,0.00000220,0.00003508,0.00002713,0.00002805,-0.00002276,0.00000835
 ,-0.00001219,-0.00001906,0.00017290,0.00036327,0.00002564,0.00009744,0
 .00011447,-0.00010119,-0.00003372,-0.00000424,0.00001068,-0.00000329,-
 0.00004104,0.00000936,-0.08735160,-0.05534567,0.02972833,0.04394008,0.
 00085208,-0.00082736,-0.00003755,-0.00362218,-0.00024144,0.00103057,0.
 00348767,-0.01334230,-0.00782964,-0.00060061,0.00259770,0.00076943,-0.
 00003259,-0.00140216,0.00096975,-0.00061118,-0.00056166,0.00065588,0.0
 0163339,0.00208604,-0.00055441,-0.00026610,0.00196197,-0.00058002,-0.0
 1270917,-0.00424895,0.07106897,-0.00010596,0.00042781,-0.00100249,-0.0
 0049354,-0.00005366,-0.00051149,0.00012271,0.00002593,0.00017585,0.002
 16635,0.00090137,0.00128212,-0.00230114,0.00268289,0.00101976,0.000221
 02,-0.00003066,-0.00031293,0.00007929,0.00039805,0.00020217,0.00009536
 ,0.00005353,-0.00010850,-0.00026879,0.00056861,-0.00030380,0.00006867,
 -0.00005210,-0.00008638,-0.00005010,-0.00003742,-0.00003429,0.00000831
 ,0.00000939,0.00001719,-0.00002289,-0.00002550,-0.00000006,0.00005925,
 -0.00007350,-0.00003791,-0.00000697,-0.00001136,-0.00001862,0.00005855
 ,0.00000412,0.00005192,-0.00003690,0.00004180,0.00003780,0.00003909,-0
 .00087983,-0.00113950,0.00033763,0.00053440,0.00010560,-0.00007833,0.0
 0018587,0.00024558,0.00004059,0.00011314,0.00015774,-0.05469145,-0.659
 28148,0.23242400,0.07117825,0.72186878,0.00042728,0.00013142,0.0005415
 7,0.00071614,-0.00006983,-0.00041708,-0.00255038,0.01375008,0.00649705
 ,-0.00175956,0.00003093,0.00134337,-0.00046752,0.00134497,-0.00029933,
 0.00016600,-0.00027233,0.00095397,-0.00071965,-0.00180327,-0.00180620,
 0.00106953,0.00101308,-0.00176320,0.02162671,0.06118154,-0.07280601,-0
 .00057024,-0.00018613,-0.00101134,0.00044209,-0.00001457,0.00031179,-0
 .00008213,-0.00016687,-0.00032565,-0.00004409,-0.00029427,-0.00286233,
 0.00015415,-0.00099370,-0.00295736,-0.00006801,0.00005685,0.00009410,0
 .00003522,-0.00028402,-0.00021019,-0.00007033,0.00000687,-0.00013995,0
 .00106093,-0.00066383,-0.00013802,0.00065096,0.00023310,0.00055478,-0.
 00003543,-0.00002981,-0.00001773,-0.00001903,-0.00000632,-0.00002189,-
 0.00000668,-0.00002669,0.00000848,-0.00069764,0.00002084,0.00029116,0.
 00005127,0.00003306,-0.00006927,-0.00002536,0.00003895,-0.00005907,0.0
 0005715,-0.00005818,-0.00002243,-0.00069388,-0.00079186,0.00026048,-0.
 00026269,-0.00068511,0.00005259,0.00019192,-0.00002946,-0.00016845,-0.
 00000976,0.00002832,-0.00024892,0.03191911,0.25367023,-0.22080642,-0.0
 5226225,-0.31611240,0.27774794,-0.00007870,-0.00005507,0.00004137,-0.0
 0048649,0.00066333,0.00062778,0.00466814,-0.00000661,0.00158357,0.0000
 9467,-0.00037601,0.00041345,-0.00004181,-0.00002608,-0.00002987,0.0000
 8260,0.00006139,-0.00008001,0.00020974,0.00034228,0.00030174,-0.000072
 93,0.00027132,-0.00002374,0.00873999,0.00843958,0.00814837,0.00000364,
 -0.00000711,0.00000313,-0.00002264,-0.00002923,0.00001933,-0.00000752,
 0.00002483,-0.00000575,-0.00016664,-0.00001845,-0.00002079,-0.00007285
 ,-0.00008376,-0.00058448,-0.00003006,-0.00001041,0.00001722,-0.0000082
 4,-0.00002138,-0.00002097,-0.00001967,-0.00000233,0.00001156,-0.000020
 84,0.00004577,-0.00001705,-0.00001042,-0.00000512,-0.00000221,0.000001
 59,-0.00000154,0.00000063,-0.00000126,-0.00000045,-0.00000173,-0.00000
 091,-0.00000201,0.00000036,-0.00000151,0.00000430,0.00000579,-0.000001
 04,-0.00000168,-0.00000553,0.00000198,-0.00000487,0.00000825,-0.000002
 35,0.00000330,0.00000484,-0.00007296,-0.00011648,-0.00012623,0.0001317
 6,-0.00003188,0.00005005,-0.00001377,0.00003665,0.00006077,0.00000321,
 0.00000529,-0.00003809,-0.09124417,0.01343919,0.00353971,0.02528358,-0
 .00570431,0.00401278,0.54280489,0.00004776,-0.00000463,0.00014118,-0.0
 0040249,0.00007673,0.00006266,-0.00009183,0.00275468,0.00393604,-0.000
 07360,0.00037235,0.00036059,-0.00013050,-0.00000965,0.00013991,-0.0000
 9668,-0.00010300,0.00026037,0.00015095,0.00003354,-0.00031553,0.000150
 26,0.00029952,-0.00024404,0.00107142,-0.00020305,-0.00903170,-0.000083
 97,-0.00001043,-0.00033180,0.00002996,-0.00000162,0.00006869,0.0000007
 7,-0.00001771,-0.00002504,0.00035694,0.00019455,0.00034948,-0.00018267
 ,-0.00024047,0.00007852,0.00000243,0.00001729,-0.00000431,0.00001672,0
 .00002535,0.00001350,0.00000640,0.00000433,-0.00002677,0.00014526,-0.0
 0002321,-0.00009229,0.00013029,0.00003551,0.00010766,-0.00001039,-0.00
 001197,-0.00000746,-0.00000296,0.00000176,-0.00000184,-0.00000418,-0.0
 0000809,0.00000818,-0.00011944,-0.00000608,0.00005463,0.00000562,0.000
 00292,-0.00002043,0.00000514,0.00000520,0.00000241,0.00000308,-0.00000
 154,0.00000525,-0.00010029,-0.00022254,-0.00001047,-0.00004381,-0.0000
 7771,0.00001785,0.00003134,0.00000287,-0.00001732,-0.00000672,0.000007
 16,-0.00002332,0.01152005,-0.18757489,-0.05891231,-0.00184430,-0.04624
 068,-0.00524088,-0.00333985,0.51473266,-0.00005332,-0.00006463,0.00002
 685,0.00102245,0.00004368,-0.00017257,0.00032748,0.00340090,-0.0034988
 0,-0.00000264,-0.00211445,-0.00026979,0.00019615,0.00073561,-0.0004595
 0,0.00025491,-0.00004834,0.00029232,-0.00051207,-0.00055435,-0.0002646
 4,-0.00007280,0.00036229,-0.00001066,0.00783714,-0.03858164,-0.0326212
 7,-0.00019079,0.00006251,-0.00005223,0.00010493,-0.00001261,0.00001867
 ,-0.00004317,-0.00001155,-0.00008113,-0.00029703,-0.00014468,-0.000217
 24,0.00018548,-0.00009309,-0.00024018,-0.00001270,0.00003318,0.0000112
 5,-0.00001291,-0.00021285,-0.00016027,-0.00003780,-0.00001160,-0.00000
 225,0.00023953,-0.00019035,-0.00001357,0.00009383,0.00005269,0.0001238
 6,0.00000379,-0.00000495,0.00000567,0.00000023,-0.00000573,-0.00000755
 ,-0.00000461,-0.00000810,-0.00000611,-0.00018945,-0.00000477,0.0000804
 7,0.00000842,0.00000975,-0.00001919,-0.00001001,0.00001157,-0.00001244
 ,0.00001401,-0.00001314,-0.00000246,-0.00015509,-0.00021866,0.00006759
 ,0.00003594,-0.00005269,0.00007014,0.00002610,0.00000384,-0.00001123,0
 .00000626,0.00002684,-0.00005344,0.00152397,-0.05772708,-0.11028690,0.
 00469123,0.02088388,0.01527787,-0.01846653,-0.03972283,0.59864370,0.00
 002343,-0.00001450,-0.00005372,0.00009228,0.00001725,-0.00004134,0.000
 04077,-0.00001191,0.00020311,-0.00007526,0.00016301,-0.00012822,-0.000
 00310,0.00003216,0.00001084,0.00006092,0.00002300,-0.00003935,-0.00006
 414,-0.00001520,0.00005943,-0.00006194,-0.00037949,-0.00002585,0.00027
 928,-0.00024216,0.00101637,-0.00004222,0.00000814,0.00003775,0.0000524
 6,0.00002931,-0.00001098,-0.00000626,-0.00002208,-0.00001297,-0.000019
 70,-0.00003739,0.00000363,0.00000025,-0.00009149,-0.00002060,-0.000001
 95,0.00000158,0.00000565,-0.00000443,0.00000609,0.00000715,-0.00000973
 ,-0.00000308,0.00000411,0.00000882,-0.00004767,0.00000950,0.00000293,0
 .00000575,0.00000474,0.00000045,0.00000335,0.00000142,0.00000125,-0.00
 000379,-0.00000117,0.00000459,0.00000229,-0.00000538,0.00000096,0.0000
 0631,0.00000053,0.00000167,0.00000184,0.00000142,-0.00000536,0.0000003
 9,-0.00000542,0.00000003,-0.00000388,-0.00000149,0.00012995,0.00029242
 ,0.00028218,-0.00012926,0.00002244,0.00001556,0.00000624,-0.00004408,-
 0.00008610,0.00000156,-0.00001468,-0.00000365,-0.00206442,-0.00214127,
 -0.00157548,0.00011408,-0.00131750,-0.00012846,-0.12733497,0.09917744,
 -0.08404003,0.13643866,0.00007658,-0.00011817,-0.00008590,-0.00001525,
 -0.00014734,-0.00004850,-0.00067820,-0.00007625,-0.00024720,-0.0000006
 0,0.00017021,-0.00000057,0.00001087,-0.00006492,0.00004275,0.00002873,
 -0.00003533,0.00001943,-0.00000856,0.00005783,-0.00002086,-0.00005020,
 -0.00004983,-0.00001101,-0.00154105,0.00163772,-0.00043023,-0.00004537
 ,0.00008029,0.00003965,-0.00000026,0.00000176,-0.00009507,-0.00000431,
 -0.00000600,-0.00001045,0.00014578,0.00001500,0.00010803,-0.00011389,0
 .00015781,0.00025173,-0.00000328,0.00000428,-0.00000488,0.00000211,0.0
 0001898,0.00001282,-0.00000036,0.00000206,-0.00000505,-0.00005304,0.00
 002214,0.00000119,-0.00003086,-0.00000513,-0.00003040,0.00000014,0.000
 00216,0.00000125,0.00000356,-0.00000240,0.00000045,0.00000075,0.000000
 50,-0.00000813,0.00003075,0.00000169,-0.00001344,-0.00000131,-0.000001
 35,0.00000291,0.00000010,-0.00000189,0.00000186,-0.00000295,0.00000204
 ,0.00000068,0.00002267,0.00004237,-0.00002562,0.00004929,0.00004520,-0
 .00002092,-0.00001240,0.00000781,0.00001860,0.00000712,0.00000566,0.00
 001077,0.01813365,-0.01776982,0.02215420,-0.00228575,-0.00562239,-0.00
 442244,0.09888953,-0.14921909,0.09341592,-0.10497332,0.16314113,0.0000
 0702,-0.00007020,0.00000620,-0.00002550,0.00001214,0.00000588,-0.00005
 491,0.00029536,0.00052579,0.00002648,-0.00001700,0.00011710,-0.0000039
 9,-0.00002580,0.00001874,-0.00001209,-0.00003277,0.00005854,0.00001312
 ,0.00001119,-0.00006155,-0.00001339,0.00017221,-0.00003159,-0.00065612
 ,-0.00068792,-0.00179976,-0.00001096,0.00004138,-0.00001371,-0.0000121
 5,-0.00003402,-0.00002782,-0.00000260,0.00001419,0.00000094,0.00005389
 ,0.00003575,0.00007358,0.00000038,-0.00006109,0.00000712,-0.00000289,0
 .00000519,-0.00000907,0.00000371,0.00000317,-0.00000047,0.00000394,0.0
 0000418,-0.00000678,-0.00001027,0.00002790,-0.00000899,-0.00000917,-0.
 00000547,-0.00001045,-0.00000053,-0.00000113,-0.00000057,-0.00000014,0
 .00000181,0.00000038,-0.00000332,-0.00000323,-0.00000145,-0.00000034,-
 0.00000277,-0.00000398,0.00000101,-0.00000119,0.00000036,0.00000229,0.
 00000115,0.00000237,-0.00000057,0.00000096,-0.00000010,-0.00006549,-0.
 00011163,-0.00009040,0.00011231,-0.00000348,0.00000106,-0.00001125,0.0
 0003658,0.00004438,0.00000921,0.00000946,-0.00002618,0.01253292,-0.006
 08216,0.00984158,-0.00255678,-0.00359171,-0.00027321,-0.08551668,0.095
 03570,-0.13468199,0.09405022,-0.10250307,0.13996713,-0.00002467,0.0000
 1665,-0.00000510,-0.00006303,0.00002747,0.00001579,0.00008142,-0.00042
 060,-0.00036446,0.00004208,-0.00000287,-0.00003001,0.00001108,-0.00004
 163,0.00001024,-0.00001860,0.00001123,-0.00004780,0.00004060,0.0000582
 5,0.00005990,0.00000156,0.00006928,0.00003337,-0.00001681,0.00040462,0
 .00087034,0.00003773,-0.00001107,0.00002324,-0.00002359,-0.00000309,0.
 00000452,0.00000618,0.00000971,0.00001659,-0.00002913,-0.00000438,-0.0
 0001841,-0.00000656,0.00003887,-0.00000542,0.00000027,-0.00000429,0.00
 000698,-0.00000076,0.00000838,0.00000668,0.00000258,-0.00000103,0.0000
 0527,-0.00003985,0.00002214,0.00000591,-0.00001717,-0.00000805,-0.0000
 1728,0.00000103,0.00000029,-0.00000007,-0.00000024,0.00000168,0.000001
 19,-0.00000074,0.00000085,0.00000231,0.00002925,0.00000458,-0.00000937
 ,-0.00000306,-0.00000232,0.00000158,0.00000129,-0.00000380,0.00000388,
 -0.00000111,0.00000296,0.00000046,-0.00001364,-0.00004473,-0.00008828,
 0.00003689,0.00000595,-0.00005917,-0.00000834,0.00001293,0.00003478,-0
 .00000556,-0.00000006,0.00000960,0.00385997,-0.00088067,0.00072462,-0.
 00081858,0.00210706,-0.00125582,-0.27379731,-0.09821070,-0.01499078,-0
 .01547964,-0.00761185,-0.00016115,0.29566199,0.00000949,-0.00002381,0.
 00000110,-0.00007553,0.00015068,0.00016625,0.00097671,-0.00018277,-0.0
 0020471,-0.00008138,-0.00012384,0.00001887,0.00001364,0.00002082,-0.00
 004578,0.00000400,0.00001875,-0.00000272,0.00005418,0.00008134,0.00004
 698,-0.00000035,-0.00005414,-0.00000704,0.00185289,0.00064829,0.000481
 02,-0.00000196,0.00000581,0.00000092,0.00000203,0.00000032,-0.00001288
 ,-0.00000137,-0.00000253,-0.00000510,0.00001589,0.00000905,0.00002636,
 -0.00008717,-0.00002752,-0.00006148,0.00002980,0.00000449,-0.00002812,
 -0.00000080,-0.00001105,-0.00000690,-0.00000159,0.00000065,-0.00000002
 ,0.00002163,-0.00000409,0.00001387,-0.00000229,-0.00000184,-0.00000688
 ,-0.00000045,0.00000065,-0.00000036,-0.00000021,0.00000006,0.00000084,
 0.00000079,0.00000035,-0.00000146,-0.00001645,-0.00000989,-0.00000278,
 0.00000523,0.00000352,0.00000378,0.00000232,0.00000683,-0.00000719,0.0
 0000108,-0.00000370,-0.00000286,0.00001647,0.00002272,0.00003360,-0.00
 002217,0.00005340,-0.00003020,0.00000249,-0.00000096,-0.00001688,0.000
 00936,0.00000801,0.00001922,-0.03286363,-0.01316337,-0.00006463,0.0053
 8614,-0.00336685,-0.00103975,-0.10113216,-0.08296668,-0.01004867,0.019
 44030,0.00892284,0.00116487,0.10763235,0.09166479,-0.00001887,-0.00000
 862,0.00003933,-0.00003574,0.00013087,0.00006969,0.00073882,0.00021060
 ,0.00005323,-0.00000466,-0.00033571,0.00016316,0.00003410,0.00000005,-
 0.00006056,-0.00003133,-0.00001765,0.00006513,0.00004756,0.00002741,-0
 .00004386,0.00009664,0.00040496,0.00002563,0.00167270,-0.00060362,-0.0
 0129234,0.00000751,0.00000940,-0.00003610,-0.00001809,-0.00001518,0.00
 002460,-0.00000013,0.00000697,-0.00000484,0.00002265,0.00002469,0.0000
 1464,0.00001070,-0.00005878,-0.00008407,0.00002803,-0.00000966,-0.0000
 2461,0.00000243,-0.00002161,-0.00002088,0.00000834,0.00000374,-0.00000
 471,-0.00000286,0.00004797,-0.00000711,0.00000372,-0.00000462,-0.00000
 415,-0.00000182,-0.00000349,-0.00000184,-0.00000057,0.00000202,0.00000
 037,-0.00000330,-0.00000259,0.00000151,-0.00001098,-0.00001516,-0.0000
 0183,0.00000089,0.00000030,-0.00000027,0.00000635,0.00000262,0.0000028
 4,0.00000079,0.00000361,0.00000126,-0.00009519,-0.00034806,-0.00026656
 ,-0.00003025,0.00002089,-0.00002940,0.00000784,0.00002687,0.00003975,0
 .00000532,0.00003282,0.00004762,-0.01631858,-0.00296973,-0.00198699,0.
 00124143,-0.00037961,0.00038612,-0.01578897,-0.01020450,-0.04388377,-0
 .01587544,-0.00778286,-0.00190283,0.01759728,0.00997473,0.04415283,0.0
 0000510,0.00000981,-0.00003036,-0.00003336,0.00008773,0.00005013,0.000
 77304,-0.00026520,-0.00018483,-0.00001942,-0.00009547,-0.00002933,0.00
 003201,-0.00000765,-0.00002570,0.00002324,0.00001246,-0.00003323,0.000
 01360,0.00006381,0.00006109,0.00000836,0.00002427,0.00001461,0.0011380
 8,-0.00011537,0.00004119,-0.00000543,0.00000021,0.00001913,0.00000388,
 0.00001456,0.00000839,-0.00000029,-0.00000623,-0.00000512,0.00000786,-
 0.00000843,-0.00000300,-0.00000612,-0.00005975,0.00000312,0.00001139,-
 0.00001148,-0.00000460,-0.00000298,-0.00000490,-0.00000610,-0.00000126
 ,-0.00000213,0.00000441,-0.00002459,0.00001094,0.00000297,-0.00000482,
 -0.00000146,-0.00000815,-0.00000019,0.00000026,0.00000015,0.00000086,-
 0.00000116,0.00000011,0.00000164,0.00000143,-0.00000146,0.00001223,-0.
 00000200,-0.00000531,-0.00000101,-0.00000004,0.00000086,0.00000053,-0.
 00000121,0.00000117,-0.00000081,0.00000197,0.00000144,0.00001513,-0.00
 002672,-0.00002577,-0.00005564,0.00002342,-0.00002812,0.00000408,-0.00
 000697,-0.00001082,-0.00000011,0.00000646,0.00002695,-0.00320000,-0.00
 205563,-0.00023565,-0.00011393,0.00036446,-0.00085233,-0.08851674,-0.0
 0810743,0.10251990,0.00804177,0.00003118,-0.01768619,-0.00944551,-0.00
 118928,0.02670366,0.09133941,-0.00000500,-0.00003269,0.00001038,0.0003
 2304,0.00001689,-0.00008197,-0.00025661,0.00058313,-0.00128727,-0.0000
 1294,-0.00063860,-0.00002202,0.00006236,0.00018189,-0.00013301,0.00004
 970,-0.00002860,0.00011229,-0.00013954,-0.00018718,-0.00013033,0.00001
 564,0.00029286,0.00000246,0.00063017,-0.00634050,-0.00454100,-0.000048
 79,0.00002794,-0.00001734,0.00001410,-0.00001834,0.00000176,-0.0000133
 6,0.00000261,-0.00002675,-0.00002416,-0.00002371,-0.00003975,0.0000407
 6,0.00004485,-0.00002160,0.00000373,0.00000597,-0.00000481,-0.00000071
 ,-0.00006190,-0.00004987,-0.00000364,0.00000140,-0.00000713,0.00005785
 ,-0.00003187,-0.00000259,0.00002045,0.00001183,0.00002454,0.,-0.000001
 92,0.00000071,0.,-0.00000054,-0.00000193,-0.00000284,-0.00000305,-0.00
 000221,-0.00005094,-0.00000548,0.00001633,0.00000361,0.00000209,-0.000
 00398,0.00000024,0.00000392,-0.00000198,0.00000455,-0.00000225,-0.0000
 0126,-0.00009803,-0.00020936,-0.00014183,0.00004383,-0.00002299,-0.000
 00478,0.00000536,0.00002441,0.00003385,0.00000420,0.00001974,-0.000007
 03,0.01356378,0.00547440,-0.02905400,-0.00119872,0.00183788,0.00165147
 ,-0.01124997,-0.05162339,0.03080409,-0.00986957,-0.00121958,0.01636147
 ,-0.00318411,-0.00168033,0.01185090,0.01131556,0.05360047,-0.00000558,
 0.00000710,-0.00001495,0.00018358,-0.00001007,-0.00005822,0.00004408,0
 .00057749,-0.00002294,-0.00002128,-0.00026476,-0.00003344,0.00002564,0
 .00011380,-0.00005757,0.00004728,-0.00000864,0.00003415,-0.00009334,-0
 .00007897,-0.00004327,0.00000002,0.00002331,-0.00000680,0.00080262,-0.
 00346725,-0.00095469,-0.00003834,0.00000890,0.00000296,0.00002529,0.00
 000836,0.00001113,-0.00000765,-0.00001049,-0.00002030,-0.00002260,-0.0
 0002728,-0.00004467,0.00004043,-0.00009619,-0.00005418,-0.00000035,0.0
 0000063,0.00000390,-0.00000314,-0.00002974,-0.00002110,-0.00000567,-0.
 00000191,-0.00000146,0.00003335,-0.00003375,-0.00000082,0.00001613,0.0
 0000937,0.00001847,0.00000041,-0.00000018,0.00000104,0.00000066,-0.000
 00177,-0.00000113,0.00000056,-0.00000035,-0.00000218,-0.00002520,-0.00
 000040,0.00001037,0.00000140,0.00000162,-0.00000253,-0.00000207,0.0000
 0149,-0.00000225,0.00000212,-0.00000192,-0.00000038,-0.00000877,-0.000
 00339,0.00003748,-0.00003535,-0.00001475,-0.00000325,0.00000759,-0.000
 00905,-0.00001773,-0.00000072,0.00000281,-0.00000058,0.00461701,0.0041
 3015,-0.01401475,-0.00113344,0.00154310,0.00210280,0.10187794,0.023590
 20,-0.28758922,0.00634202,-0.00031566,-0.01172027,-0.00238139,-0.00035
 600,0.00456902,-0.11028322,-0.02528580,0.30789735\\-0.00000071,0.00000
 331,0.00000422,0.00000014,0.00000630,-0.00000110,-0.00000224,-0.000005
 28,-0.00000187,0.00000206,-0.00000334,-0.00000420,-0.00000408,-0.00000
 003,0.00000035,-0.00000235,0.00000115,0.00000183,-0.00000181,-0.000000
 91,0.00000081,-0.00000173,-0.00000310,0.00000258,0.00000501,0.00000130
 ,0.00000733,0.00000069,0.00000669,0.00000448,0.00000130,0.00000271,0.0
 0000078,0.,0.00000504,0.00000288,-0.00000005,0.00000280,0.00000041,-0.
 00000031,0.00000010,-0.00000106,-0.00000055,-0.00000332,-0.00000099,-0
 .00000321,-0.00000282,-0.00000011,-0.00000730,0.00000106,0.00000252,-0
 .00000646,-0.00000478,-0.00000263,-0.00000898,0.00000028,-0.00000137,-
 0.00000583,0.00000377,0.00000321,-0.00000483,0.00000584,0.00000381,-0.
 00000313,0.00000389,0.00000403,-0.00000090,-0.00000361,-0.00000402,-0.
 00000613,-0.00000630,-0.00000175,-0.00000337,-0.00000740,-0.00000370,-
 0.00000665,-0.00000582,-0.00000319,0.00000665,0.00000192,-0.00000189,0
 .00000478,-0.00000244,-0.00000241,0.00000214,-0.00000396,-0.00000186,0
 .00000481,-0.00000280,-0.00000117,0.00000526,0.00000347,-0.00000808,0.
 00000360,0.00000253,0.00000195,0.00000786,-0.00000001,0.00000063,0.000
 00898,0.00000207,0.00000095,0.00000818,-0.00000042,-0.00000112,0.00000
 917,0.00000213,-0.00000024\\\@


 ONE OF THE BENEFITS OF A COLLEGE EDUCATION
 IS TO SHOW THE BOY ITS LITTLE AVAIL 
                                    EMERSON IN 'CULTURE'
 Job cpu time:       0 days  6 hours 39 minutes  0.9 seconds.
 File lengths (MBytes):  RWF=    766 Int=      0 D2E=      0 Chk=     19 Scr=      1
 Normal termination of Gaussian 09 at Tue Jan 10 01:49:35 2017.
