 Entering Gaussian System, Link 0=g09
 Initial command:
 /share/apps//g09/l1.exe "/scratch/Gau-4008.inp" -scrdir="/scratch/"
 Entering Link 1 = /share/apps//g09/l1.exe PID=      4009.
  
 Copyright (c) 1988,1990,1992,1993,1995,1998,2003,2009,2013,
            Gaussian, Inc.  All Rights Reserved.
  
 This is part of the Gaussian(R) 09 program.  It is based on
 the Gaussian(R) 03 system (copyright 2003, Gaussian, Inc.),
 the Gaussian(R) 98 system (copyright 1998, Gaussian, Inc.),
 the Gaussian(R) 94 system (copyright 1995, Gaussian, Inc.),
 the Gaussian 92(TM) system (copyright 1992, Gaussian, Inc.),
 the Gaussian 90(TM) system (copyright 1990, Gaussian, Inc.),
 the Gaussian 88(TM) system (copyright 1988, Gaussian, Inc.),
 the Gaussian 86(TM) system (copyright 1986, Carnegie Mellon
 University), and the Gaussian 82(TM) system (copyright 1983,
 Carnegie Mellon University). Gaussian is a federally registered
 trademark of Gaussian, Inc.
  
 This software contains proprietary and confidential information,
 including trade secrets, belonging to Gaussian, Inc.
  
 This software is provided under written license and may be
 used, copied, transmitted, or stored only in accord with that
 written license.
  
 The following legend is applicable only to US Government
 contracts under FAR:
  
                    RESTRICTED RIGHTS LEGEND
  
 Use, reproduction and disclosure by the US Government is
 subject to restrictions as set forth in subparagraphs (a)
 and (c) of the Commercial Computer Software - Restricted
 Rights clause in FAR 52.227-19.
  
 Gaussian, Inc.
 340 Quinnipiac St., Bldg. 40, Wallingford CT 06492
  
  
 ---------------------------------------------------------------
 Warning -- This program may not be used in any manner that
 competes with the business of Gaussian, Inc. or will provide
 assistance to any competitor of Gaussian, Inc.  The licensee
 of this program is prohibited from giving any competitor of
 Gaussian, Inc. access to this program.  By using this program,
 the user acknowledges that Gaussian, Inc. is engaged in the
 business of creating and licensing software in the field of
 computational chemistry and represents and warrants to the
 licensee that it is not a competitor of Gaussian, Inc. and that
 it will not use this program in any manner prohibited above.
 ---------------------------------------------------------------
  

 Cite this work as:
 Gaussian 09, Revision D.01,
 M. J. Frisch, G. W. Trucks, H. B. Schlegel, G. E. Scuseria, 
 M. A. Robb, J. R. Cheeseman, G. Scalmani, V. Barone, B. Mennucci, 
 G. A. Petersson, H. Nakatsuji, M. Caricato, X. Li, H. P. Hratchian, 
 A. F. Izmaylov, J. Bloino, G. Zheng, J. L. Sonnenberg, M. Hada, 
 M. Ehara, K. Toyota, R. Fukuda, J. Hasegawa, M. Ishida, T. Nakajima, 
 Y. Honda, O. Kitao, H. Nakai, T. Vreven, J. A. Montgomery, Jr., 
 J. E. Peralta, F. Ogliaro, M. Bearpark, J. J. Heyd, E. Brothers, 
 K. N. Kudin, V. N. Staroverov, T. Keith, R. Kobayashi, J. Normand, 
 K. Raghavachari, A. Rendell, J. C. Burant, S. S. Iyengar, J. Tomasi, 
 M. Cossi, N. Rega, J. M. Millam, M. Klene, J. E. Knox, J. B. Cross, 
 V. Bakken, C. Adamo, J. Jaramillo, R. Gomperts, R. E. Stratmann, 
 O. Yazyev, A. J. Austin, R. Cammi, C. Pomelli, J. W. Ochterski, 
 R. L. Martin, K. Morokuma, V. G. Zakrzewski, G. A. Voth, 
 P. Salvador, J. J. Dannenberg, S. Dapprich, A. D. Daniels, 
 O. Farkas, J. B. Foresman, J. V. Ortiz, J. Cioslowski, 
 and D. J. Fox, Gaussian, Inc., Wallingford CT, 2013.
 
 ******************************************
 Gaussian 09:  EM64L-G09RevD.01 24-Apr-2013
                24-Oct-2017 
 ******************************************
 %nproc=20
 Will use up to   20 processors via shared memory.
 %mem=100GB
 %chk=Ac-4_cGalMe.chk
 -------------------------------------------------------------------
 #P PBE1PBE/6-311+G(d,p) opt optcyc=999 freq EmpiricalDispersion=GD3
 -------------------------------------------------------------------
 1/6=999,14=-1,18=20,19=15,26=3,38=1/1,3;
 2/9=110,12=2,17=6,18=5,40=1/2;
 3/5=4,6=6,7=111,11=2,16=1,25=1,30=1,71=1,74=-13,124=31/1,2,3;
 4//1;
 5/5=2,38=5/2;
 6/7=2,8=2,9=2,10=2,28=1/1;
 7//1,2,3,16;
 1/6=999,14=-1,18=20,19=15,26=3/3(2);
 2/9=110/2;
 99//99;
 2/9=110/2;
 3/5=4,6=6,7=111,11=2,16=1,25=1,30=1,71=1,74=-13,124=31/1,2,3;
 4/5=5,16=3,69=1/1;
 5/5=2,38=5/2;
 7//1,2,3,16;
 1/6=999,14=-1,18=20,19=15,26=3/3(-5);
 2/9=110/2;
 6/7=2,8=2,9=2,10=2,19=2,28=1/1;
 99/9=1/99;
 Leave Link    1 at Tue Oct 24 12:45:24 2017, MaxMem= 13421772800 cpu:         1.9
 (Enter /share/apps//g09/l101.exe)
 -------
 disacch
 -------
 Symbolic Z-matrix:
 Charge =  1 Multiplicity = 1
 C                    -0.74692  -1.3494    3.33968 
 C                     0.30199  -0.96462   2.30836 
 C                     0.40344   0.52191   2.01528 
 C                     1.54104   0.8407    1.03259 
 C                     1.64612  -0.2728   -0.05969 
 C                     0.36583  -1.09947  -0.07084 
 O                    -0.01488  -1.68639   1.06468 
 O                     1.3108    2.13536   0.51876 
 O                    -0.90238   1.03822   1.50025 
 O                    -0.49603  -2.68395   3.70513 
 H                    -1.76353  -1.2247    2.9154 
 H                    -0.65784  -0.6627    4.20785 
 H                     1.28433  -1.32907   2.65393 
 H                     0.51926   1.10231   2.93857 
 H                     2.4737    0.79846   1.62873 
 H                     1.76044   0.20072  -1.05131 
 H                     0.25718  -1.79529  -0.90836 
 O                     2.66826  -1.2126    0.20343 
 C                    -1.48206  -3.20048   4.60481 
 H                    -1.19081  -4.23296   4.82429 
 H                    -1.50919  -2.62127   5.54405 
 H                    -2.48473  -3.19359   4.14346 
 C                     3.95127  -0.83962  -0.32685 
 H                     3.90237  -0.71835  -1.42102 
 H                     4.32911   0.08995   0.13099 
 H                     4.63055  -1.66186  -0.08017 
 C                     2.49453   2.78283   0.02307 
 H                     3.2471    2.88167   0.82183 
 H                     2.93401   2.24203  -0.83107 
 H                     2.18147   3.77805  -0.30819 
 C                    -1.28801   0.84057   0.26923 
 O                    -0.78318   0.00266  -0.547 
 C                    -2.41835   1.68641  -0.18554 
 H                    -2.0063    2.66808  -0.46672 
 H                    -3.12382   1.84901   0.6374 
 H                    -2.91117   1.24021  -1.05321 
 
 NAtoms=     36 NQM=       36 NQMF=       0 NMMI=      0 NMMIF=      0
                NMic=       0 NMicF=      0.
                    Isotopes and Nuclear Properties:
 (Nuclear quadrupole moments (NQMom) in fm**2, nuclear magnetic moments (NMagM)
  in nuclear magnetons)

  Atom         1           2           3           4           5           6           7           8           9          10
 IAtWgt=          12          12          12          12          12          12          16          16          16          16
 AtmWgt=  12.0000000  12.0000000  12.0000000  12.0000000  12.0000000  12.0000000  15.9949146  15.9949146  15.9949146  15.9949146
 NucSpn=           0           0           0           0           0           0           0           0           0           0
 AtZEff=   0.0000000   0.0000000   0.0000000   0.0000000   0.0000000   0.0000000   0.0000000   0.0000000   0.0000000   0.0000000
 NQMom=    0.0000000   0.0000000   0.0000000   0.0000000   0.0000000   0.0000000   0.0000000   0.0000000   0.0000000   0.0000000
 NMagM=    0.0000000   0.0000000   0.0000000   0.0000000   0.0000000   0.0000000   0.0000000   0.0000000   0.0000000   0.0000000
 AtZNuc=   6.0000000   6.0000000   6.0000000   6.0000000   6.0000000   6.0000000   8.0000000   8.0000000   8.0000000   8.0000000

  Atom        11          12          13          14          15          16          17          18          19          20
 IAtWgt=           1           1           1           1           1           1           1          16          12           1
 AtmWgt=   1.0078250   1.0078250   1.0078250   1.0078250   1.0078250   1.0078250   1.0078250  15.9949146  12.0000000   1.0078250
 NucSpn=           1           1           1           1           1           1           1           0           0           1
 AtZEff=   0.0000000   0.0000000   0.0000000   0.0000000   0.0000000   0.0000000   0.0000000   0.0000000   0.0000000   0.0000000
 NQMom=    0.0000000   0.0000000   0.0000000   0.0000000   0.0000000   0.0000000   0.0000000   0.0000000   0.0000000   0.0000000
 NMagM=    2.7928460   2.7928460   2.7928460   2.7928460   2.7928460   2.7928460   2.7928460   0.0000000   0.0000000   2.7928460
 AtZNuc=   1.0000000   1.0000000   1.0000000   1.0000000   1.0000000   1.0000000   1.0000000   8.0000000   6.0000000   1.0000000

  Atom        21          22          23          24          25          26          27          28          29          30
 IAtWgt=           1           1          12           1           1           1          12           1           1           1
 AtmWgt=   1.0078250   1.0078250  12.0000000   1.0078250   1.0078250   1.0078250  12.0000000   1.0078250   1.0078250   1.0078250
 NucSpn=           1           1           0           1           1           1           0           1           1           1
 AtZEff=   0.0000000   0.0000000   0.0000000   0.0000000   0.0000000   0.0000000   0.0000000   0.0000000   0.0000000   0.0000000
 NQMom=    0.0000000   0.0000000   0.0000000   0.0000000   0.0000000   0.0000000   0.0000000   0.0000000   0.0000000   0.0000000
 NMagM=    2.7928460   2.7928460   0.0000000   2.7928460   2.7928460   2.7928460   0.0000000   2.7928460   2.7928460   2.7928460
 AtZNuc=   1.0000000   1.0000000   6.0000000   1.0000000   1.0000000   1.0000000   6.0000000   1.0000000   1.0000000   1.0000000

  Atom        31          32          33          34          35          36
 IAtWgt=          12          16          12           1           1           1
 AtmWgt=  12.0000000  15.9949146  12.0000000   1.0078250   1.0078250   1.0078250
 NucSpn=           0           0           0           1           1           1
 AtZEff=   0.0000000   0.0000000   0.0000000   0.0000000   0.0000000   0.0000000
 NQMom=    0.0000000   0.0000000   0.0000000   0.0000000   0.0000000   0.0000000
 NMagM=    0.0000000   0.0000000   0.0000000   2.7928460   2.7928460   2.7928460
 AtZNuc=   6.0000000   8.0000000   6.0000000   1.0000000   1.0000000   1.0000000
 Leave Link  101 at Tue Oct 24 12:45:25 2017, MaxMem= 13421772800 cpu:         5.3
 (Enter /share/apps//g09/l103.exe)

 GradGradGradGradGradGradGradGradGradGradGradGradGradGradGradGradGradGrad
 Berny optimization.
 Initialization pass.
                           ----------------------------
                           !    Initial Parameters    !
                           ! (Angstroms and Degrees)  !
 --------------------------                            --------------------------
 ! Name  Definition              Value          Derivative Info.                !
 --------------------------------------------------------------------------------
 ! R1    R(1,2)                  1.5205         estimate D2E/DX2                !
 ! R2    R(1,10)                 1.4062         estimate D2E/DX2                !
 ! R3    R(1,11)                 1.1086         estimate D2E/DX2                !
 ! R4    R(1,12)                 1.1105         estimate D2E/DX2                !
 ! R5    R(2,3)                  1.5185         estimate D2E/DX2                !
 ! R6    R(2,7)                  1.4724         estimate D2E/DX2                !
 ! R7    R(2,13)                 1.1033         estimate D2E/DX2                !
 ! R8    R(3,4)                  1.5367         estimate D2E/DX2                !
 ! R9    R(3,9)                  1.4957         estimate D2E/DX2                !
 ! R10   R(3,14)                 1.0967         estimate D2E/DX2                !
 ! R11   R(4,5)                  1.5633         estimate D2E/DX2                !
 ! R12   R(4,8)                  1.4118         estimate D2E/DX2                !
 ! R13   R(4,15)                 1.1077         estimate D2E/DX2                !
 ! R14   R(5,6)                  1.524          estimate D2E/DX2                !
 ! R15   R(5,16)                 1.1048         estimate D2E/DX2                !
 ! R16   R(5,18)                 1.4132         estimate D2E/DX2                !
 ! R17   R(6,7)                  1.3337         estimate D2E/DX2                !
 ! R18   R(6,17)                 1.0943         estimate D2E/DX2                !
 ! R19   R(6,32)                 1.6618         estimate D2E/DX2                !
 ! R20   R(8,27)                 1.4374         estimate D2E/DX2                !
 ! R21   R(9,31)                 1.3051         estimate D2E/DX2                !
 ! R22   R(10,19)                1.4313         estimate D2E/DX2                !
 ! R23   R(18,23)                1.4375         estimate D2E/DX2                !
 ! R24   R(19,20)                1.095          estimate D2E/DX2                !
 ! R25   R(19,21)                1.1038         estimate D2E/DX2                !
 ! R26   R(19,22)                1.1037         estimate D2E/DX2                !
 ! R27   R(23,24)                1.102          estimate D2E/DX2                !
 ! R28   R(23,25)                1.1029         estimate D2E/DX2                !
 ! R29   R(23,26)                1.0947         estimate D2E/DX2                !
 ! R30   R(27,28)                1.1019         estimate D2E/DX2                !
 ! R31   R(27,29)                1.1023         estimate D2E/DX2                !
 ! R32   R(27,30)                1.0946         estimate D2E/DX2                !
 ! R33   R(31,32)                1.274          estimate D2E/DX2                !
 ! R34   R(31,33)                1.4832         estimate D2E/DX2                !
 ! R35   R(33,34)                1.1011         estimate D2E/DX2                !
 ! R36   R(33,35)                1.0961         estimate D2E/DX2                !
 ! R37   R(33,36)                1.0931         estimate D2E/DX2                !
 ! A1    A(2,1,10)             107.0588         estimate D2E/DX2                !
 ! A2    A(2,1,11)             110.1539         estimate D2E/DX2                !
 ! A3    A(2,1,12)             108.5689         estimate D2E/DX2                !
 ! A4    A(10,1,11)            111.7036         estimate D2E/DX2                !
 ! A5    A(10,1,12)            111.6765         estimate D2E/DX2                !
 ! A6    A(11,1,12)            107.6497         estimate D2E/DX2                !
 ! A7    A(1,2,3)              115.1333         estimate D2E/DX2                !
 ! A8    A(1,2,7)              107.4815         estimate D2E/DX2                !
 ! A9    A(1,2,13)             108.553          estimate D2E/DX2                !
 ! A10   A(3,2,7)              109.3424         estimate D2E/DX2                !
 ! A11   A(3,2,13)             108.9254         estimate D2E/DX2                !
 ! A12   A(7,2,13)             107.1121         estimate D2E/DX2                !
 ! A13   A(2,3,4)              112.0834         estimate D2E/DX2                !
 ! A14   A(2,3,9)              110.2466         estimate D2E/DX2                !
 ! A15   A(2,3,14)             111.2625         estimate D2E/DX2                !
 ! A16   A(4,3,9)              110.7633         estimate D2E/DX2                !
 ! A17   A(4,3,14)             110.5118         estimate D2E/DX2                !
 ! A18   A(9,3,14)             101.5027         estimate D2E/DX2                !
 ! A19   A(3,4,5)              110.4138         estimate D2E/DX2                !
 ! A20   A(3,4,8)              107.5929         estimate D2E/DX2                !
 ! A21   A(3,4,15)             105.738          estimate D2E/DX2                !
 ! A22   A(5,4,8)              114.1945         estimate D2E/DX2                !
 ! A23   A(5,4,15)             106.9934         estimate D2E/DX2                !
 ! A24   A(8,4,15)             111.6016         estimate D2E/DX2                !
 ! A25   A(4,5,6)              109.5722         estimate D2E/DX2                !
 ! A26   A(4,5,16)             109.1952         estimate D2E/DX2                !
 ! A27   A(4,5,18)             113.0905         estimate D2E/DX2                !
 ! A28   A(6,5,16)             108.2307         estimate D2E/DX2                !
 ! A29   A(6,5,18)             104.3735         estimate D2E/DX2                !
 ! A30   A(16,5,18)            112.1658         estimate D2E/DX2                !
 ! A31   A(5,6,7)              118.1817         estimate D2E/DX2                !
 ! A32   A(5,6,17)             115.7171         estimate D2E/DX2                !
 ! A33   A(5,6,32)             102.8968         estimate D2E/DX2                !
 ! A34   A(7,6,17)             110.088          estimate D2E/DX2                !
 ! A35   A(7,6,32)             109.7816         estimate D2E/DX2                !
 ! A36   A(17,6,32)             97.6873         estimate D2E/DX2                !
 ! A37   A(2,7,6)              116.2299         estimate D2E/DX2                !
 ! A38   A(4,8,27)             113.8458         estimate D2E/DX2                !
 ! A39   A(3,9,31)             122.0402         estimate D2E/DX2                !
 ! A40   A(1,10,19)            112.5159         estimate D2E/DX2                !
 ! A41   A(5,18,23)            113.8477         estimate D2E/DX2                !
 ! A42   A(10,19,20)           106.4419         estimate D2E/DX2                !
 ! A43   A(10,19,21)           111.2499         estimate D2E/DX2                !
 ! A44   A(10,19,22)           111.1521         estimate D2E/DX2                !
 ! A45   A(20,19,21)           109.315          estimate D2E/DX2                !
 ! A46   A(20,19,22)           109.3474         estimate D2E/DX2                !
 ! A47   A(21,19,22)           109.2728         estimate D2E/DX2                !
 ! A48   A(18,23,24)           110.8075         estimate D2E/DX2                !
 ! A49   A(18,23,25)           111.7962         estimate D2E/DX2                !
 ! A50   A(18,23,26)           106.0108         estimate D2E/DX2                !
 ! A51   A(24,23,25)           109.5498         estimate D2E/DX2                !
 ! A52   A(24,23,26)           109.5085         estimate D2E/DX2                !
 ! A53   A(25,23,26)           109.0826         estimate D2E/DX2                !
 ! A54   A(8,27,28)            110.6631         estimate D2E/DX2                !
 ! A55   A(8,27,29)            111.9958         estimate D2E/DX2                !
 ! A56   A(8,27,30)            106.1631         estimate D2E/DX2                !
 ! A57   A(28,27,29)           109.4753         estimate D2E/DX2                !
 ! A58   A(28,27,30)           109.4601         estimate D2E/DX2                !
 ! A59   A(29,27,30)           109.0004         estimate D2E/DX2                !
 ! A60   A(9,31,32)            125.9327         estimate D2E/DX2                !
 ! A61   A(9,31,33)            115.343          estimate D2E/DX2                !
 ! A62   A(32,31,33)           118.7243         estimate D2E/DX2                !
 ! A63   A(6,32,31)            121.7746         estimate D2E/DX2                !
 ! A64   A(31,33,34)           107.5488         estimate D2E/DX2                !
 ! A65   A(31,33,35)           110.1758         estimate D2E/DX2                !
 ! A66   A(31,33,36)           110.7436         estimate D2E/DX2                !
 ! A67   A(34,33,35)           107.4768         estimate D2E/DX2                !
 ! A68   A(34,33,36)           109.2645         estimate D2E/DX2                !
 ! A69   A(35,33,36)           111.491          estimate D2E/DX2                !
 ! D1    D(10,1,2,3)          -166.8091         estimate D2E/DX2                !
 ! D2    D(10,1,2,7)            71.0962         estimate D2E/DX2                !
 ! D3    D(10,1,2,13)          -44.4414         estimate D2E/DX2                !
 ! D4    D(11,1,2,3)            71.5446         estimate D2E/DX2                !
 ! D5    D(11,1,2,7)           -50.5501         estimate D2E/DX2                !
 ! D6    D(11,1,2,13)         -166.0877         estimate D2E/DX2                !
 ! D7    D(12,1,2,3)           -46.101          estimate D2E/DX2                !
 ! D8    D(12,1,2,7)          -168.1957         estimate D2E/DX2                !
 ! D9    D(12,1,2,13)           76.2667         estimate D2E/DX2                !
 ! D10   D(2,1,10,19)         -175.6738         estimate D2E/DX2                !
 ! D11   D(11,1,10,19)         -55.0079         estimate D2E/DX2                !
 ! D12   D(12,1,10,19)          65.6137         estimate D2E/DX2                !
 ! D13   D(1,2,3,4)            176.4074         estimate D2E/DX2                !
 ! D14   D(1,2,3,9)            -59.715          estimate D2E/DX2                !
 ! D15   D(1,2,3,14)            52.0995         estimate D2E/DX2                !
 ! D16   D(7,2,3,4)            -62.5053         estimate D2E/DX2                !
 ! D17   D(7,2,3,9)             61.3723         estimate D2E/DX2                !
 ! D18   D(7,2,3,14)           173.1868         estimate D2E/DX2                !
 ! D19   D(13,2,3,4)            54.2398         estimate D2E/DX2                !
 ! D20   D(13,2,3,9)           178.1174         estimate D2E/DX2                !
 ! D21   D(13,2,3,14)          -70.0681         estimate D2E/DX2                !
 ! D22   D(1,2,7,6)            151.652          estimate D2E/DX2                !
 ! D23   D(3,2,7,6)             26.0267         estimate D2E/DX2                !
 ! D24   D(13,2,7,6)           -91.8605         estimate D2E/DX2                !
 ! D25   D(2,3,4,5)             37.4934         estimate D2E/DX2                !
 ! D26   D(2,3,4,8)            162.7167         estimate D2E/DX2                !
 ! D27   D(2,3,4,15)           -77.9025         estimate D2E/DX2                !
 ! D28   D(9,3,4,5)            -86.0948         estimate D2E/DX2                !
 ! D29   D(9,3,4,8)             39.1285         estimate D2E/DX2                !
 ! D30   D(9,3,4,15)           158.5093         estimate D2E/DX2                !
 ! D31   D(14,3,4,5)           162.2179         estimate D2E/DX2                !
 ! D32   D(14,3,4,8)           -72.5588         estimate D2E/DX2                !
 ! D33   D(14,3,4,15)           46.822          estimate D2E/DX2                !
 ! D34   D(2,3,9,31)           -77.6916         estimate D2E/DX2                !
 ! D35   D(4,3,9,31)            46.9465         estimate D2E/DX2                !
 ! D36   D(14,3,9,31)          164.306          estimate D2E/DX2                !
 ! D37   D(3,4,5,6)             16.5213         estimate D2E/DX2                !
 ! D38   D(3,4,5,16)           134.9035         estimate D2E/DX2                !
 ! D39   D(3,4,5,18)           -99.4545         estimate D2E/DX2                !
 ! D40   D(8,4,5,6)           -104.8634         estimate D2E/DX2                !
 ! D41   D(8,4,5,16)            13.5189         estimate D2E/DX2                !
 ! D42   D(8,4,5,18)           139.1608         estimate D2E/DX2                !
 ! D43   D(15,4,5,6)           131.1266         estimate D2E/DX2                !
 ! D44   D(15,4,5,16)         -110.4912         estimate D2E/DX2                !
 ! D45   D(15,4,5,18)           15.1508         estimate D2E/DX2                !
 ! D46   D(3,4,8,27)           156.8103         estimate D2E/DX2                !
 ! D47   D(5,4,8,27)           -80.2596         estimate D2E/DX2                !
 ! D48   D(15,4,8,27)           41.2415         estimate D2E/DX2                !
 ! D49   D(4,5,6,7)            -56.4656         estimate D2E/DX2                !
 ! D50   D(4,5,6,17)           169.8608         estimate D2E/DX2                !
 ! D51   D(4,5,6,32)            64.6366         estimate D2E/DX2                !
 ! D52   D(16,5,6,7)          -175.4452         estimate D2E/DX2                !
 ! D53   D(16,5,6,17)           50.8813         estimate D2E/DX2                !
 ! D54   D(16,5,6,32)          -54.3429         estimate D2E/DX2                !
 ! D55   D(18,5,6,7)            64.9201         estimate D2E/DX2                !
 ! D56   D(18,5,6,17)          -68.7535         estimate D2E/DX2                !
 ! D57   D(18,5,6,32)         -173.9777         estimate D2E/DX2                !
 ! D58   D(4,5,18,23)          -88.2537         estimate D2E/DX2                !
 ! D59   D(6,5,18,23)          152.7211         estimate D2E/DX2                !
 ! D60   D(16,5,18,23)          35.7768         estimate D2E/DX2                !
 ! D61   D(5,6,7,2)             33.205          estimate D2E/DX2                !
 ! D62   D(17,6,7,2)           169.2692         estimate D2E/DX2                !
 ! D63   D(32,6,7,2)           -84.2978         estimate D2E/DX2                !
 ! D64   D(5,6,32,31)          -79.8464         estimate D2E/DX2                !
 ! D65   D(7,6,32,31)           46.8251         estimate D2E/DX2                !
 ! D66   D(17,6,32,31)         161.4616         estimate D2E/DX2                !
 ! D67   D(4,8,27,28)          -59.4018         estimate D2E/DX2                !
 ! D68   D(4,8,27,29)           63.0529         estimate D2E/DX2                !
 ! D69   D(4,8,27,30)         -178.088          estimate D2E/DX2                !
 ! D70   D(3,9,31,32)           14.7675         estimate D2E/DX2                !
 ! D71   D(3,9,31,33)         -165.2121         estimate D2E/DX2                !
 ! D72   D(1,10,19,20)        -179.7983         estimate D2E/DX2                !
 ! D73   D(1,10,19,21)         -60.8            estimate D2E/DX2                !
 ! D74   D(1,10,19,22)          61.2184         estimate D2E/DX2                !
 ! D75   D(5,18,23,24)         -59.5126         estimate D2E/DX2                !
 ! D76   D(5,18,23,25)          63.001          estimate D2E/DX2                !
 ! D77   D(5,18,23,26)        -178.2443         estimate D2E/DX2                !
 ! D78   D(9,31,32,6)            7.0483         estimate D2E/DX2                !
 ! D79   D(33,31,32,6)        -172.9727         estimate D2E/DX2                !
 ! D80   D(9,31,33,34)          81.0684         estimate D2E/DX2                !
 ! D81   D(9,31,33,35)         -35.7889         estimate D2E/DX2                !
 ! D82   D(9,31,33,36)        -159.6048         estimate D2E/DX2                !
 ! D83   D(32,31,33,34)        -98.9128         estimate D2E/DX2                !
 ! D84   D(32,31,33,35)        144.2299         estimate D2E/DX2                !
 ! D85   D(32,31,33,36)         20.4141         estimate D2E/DX2                !
 --------------------------------------------------------------------------------
 Trust Radius=3.00D-01 FncErr=1.00D-07 GrdErr=1.00D-06
 Number of steps in this run=    216 maximum allowed number of steps=    216.
 GradGradGradGradGradGradGradGradGradGradGradGradGradGradGradGradGradGrad

 Leave Link  103 at Tue Oct 24 12:45:25 2017, MaxMem= 13421772800 cpu:         0.3
 (Enter /share/apps//g09/l202.exe)
                          Input orientation:                          
 ---------------------------------------------------------------------
 Center     Atomic      Atomic             Coordinates (Angstroms)
 Number     Number       Type             X           Y           Z
 ---------------------------------------------------------------------
      1          6           0       -0.746920   -1.349400    3.339680
      2          6           0        0.301990   -0.964620    2.308360
      3          6           0        0.403440    0.521910    2.015280
      4          6           0        1.541040    0.840700    1.032590
      5          6           0        1.646120   -0.272800   -0.059690
      6          6           0        0.365830   -1.099470   -0.070840
      7          8           0       -0.014880   -1.686390    1.064680
      8          8           0        1.310800    2.135360    0.518760
      9          8           0       -0.902380    1.038220    1.500250
     10          8           0       -0.496030   -2.683950    3.705130
     11          1           0       -1.763530   -1.224700    2.915400
     12          1           0       -0.657840   -0.662700    4.207850
     13          1           0        1.284330   -1.329070    2.653930
     14          1           0        0.519260    1.102310    2.938570
     15          1           0        2.473700    0.798460    1.628730
     16          1           0        1.760440    0.200720   -1.051310
     17          1           0        0.257180   -1.795290   -0.908360
     18          8           0        2.668260   -1.212600    0.203430
     19          6           0       -1.482060   -3.200480    4.604810
     20          1           0       -1.190810   -4.232960    4.824290
     21          1           0       -1.509190   -2.621270    5.544050
     22          1           0       -2.484730   -3.193590    4.143460
     23          6           0        3.951270   -0.839620   -0.326850
     24          1           0        3.902370   -0.718350   -1.421020
     25          1           0        4.329110    0.089950    0.130990
     26          1           0        4.630550   -1.661860   -0.080170
     27          6           0        2.494530    2.782830    0.023070
     28          1           0        3.247100    2.881670    0.821830
     29          1           0        2.934010    2.242030   -0.831070
     30          1           0        2.181470    3.778050   -0.308190
     31          6           0       -1.288010    0.840570    0.269230
     32          8           0       -0.783180    0.002660   -0.547000
     33          6           0       -2.418350    1.686410   -0.185540
     34          1           0       -2.006300    2.668080   -0.466720
     35          1           0       -3.123820    1.849010    0.637400
     36          1           0       -2.911170    1.240210   -1.053210
 ---------------------------------------------------------------------
                    Distance matrix (angstroms):
                    1          2          3          4          5
     1  C    0.000000
     2  C    1.520490   0.000000
     3  C    2.564988   1.518539   0.000000
     4  C    3.918413   2.534169   1.536698   0.000000
     5  C    4.294348   2.809441   2.545843   1.563330   0.000000
     6  C    3.596154   2.383873   2.642382   2.522486   1.524024
     7  O    2.413518   1.472446   2.440332   2.967844   2.453847
     8  O    4.933088   3.718903   2.380356   1.411799   2.499256
     9  O    3.018013   2.472836   1.495660   2.495600   3.262980
    10  O    1.406244   2.354548   3.733923   4.869834   4.957451
    11  H    1.108630   2.168528   2.925170   4.327936   4.624174
    12  H    1.110500   2.149533   2.708686   4.144582   4.865404
    13  H    2.143978   1.103283   2.147084   2.720762   2.934337
    14  H    2.788366   2.171767   1.096696   2.178356   3.485729
    15  H    4.232381   2.878658   2.124118   1.107710   2.164082
    16  H    5.288716   3.843498   3.368766   2.190970   1.104808
    17  H    4.387810   3.322545   3.733427   3.516252   2.228760
    18  O    4.638775   3.176706   3.379458   2.484788   1.413233
    19  C    2.359551   3.668186   4.910902   6.183124   6.333591
    20  H    3.273534   4.386388   5.748127   6.897972   6.898137
    21  H    2.656681   4.061349   5.098034   6.453093   6.846400
    22  H    2.658399   4.012693   5.164844   6.493060   6.577340
    23  C    5.981330   4.503021   4.463904   3.237400   2.388802
    24  H    6.684189   5.189572   5.058549   3.745226   2.672527
    25  H    6.175233   4.697952   4.375845   3.024871   2.714108
    26  H    6.380454   4.992760   5.198867   4.128694   3.291919
    27  C    6.211459   4.906441   3.667876   2.387497   3.172306
    28  H    6.339852   5.067286   3.883194   2.668449   3.645668
    29  H    6.621387   5.202514   4.179032   2.716122   2.928832
    30  H    6.940689   5.733384   4.377482   3.291788   4.093622
    31  C    3.810041   3.153548   2.451783   2.930229   3.155456
    32  O    4.115296   3.204108   2.871057   2.932476   2.492960
    33  C    4.943379   4.543979   3.763266   4.227982   4.513785
    34  H    5.675814   5.121111   4.071022   4.262730   4.706869
    35  H    4.814748   4.737594   4.012644   4.788923   5.266910
    36  H    5.539634   5.146438   4.573645   4.932783   4.903588
                    6          7          8          9         10
     6  C    0.000000
     7  O    1.333724   0.000000
     8  O    3.421216   4.081817   0.000000
     9  O    2.940476   2.898427   2.658045   0.000000
    10  O    4.184654   2.863321   6.053374   4.345246   0.000000
    11  H    3.669807   2.587682   5.146396   2.804467   2.087975
    12  H    4.421070   3.367619   5.031309   3.206872   2.089105
    13  H    2.884568   2.083588   4.069635   3.422972   2.471923
    14  H    3.732013   3.402002   2.747582   2.023347   3.994270
    15  H    3.306629   3.561694   2.090854   3.387021   5.025725
    16  H    2.144004   3.345199   2.531823   3.781861   6.003057
    17  H    1.094262   1.994684   4.312400   3.895479   4.758291
    18  O    2.321466   2.857528   3.626426   4.415586   4.943633
    19  C    5.448912   4.120389   7.277847   5.285915   1.431252
    20  H    6.016991   4.690682   8.084005   6.238411   2.033389
    21  H    6.112165   4.813701   7.472042   5.487477   2.100488
    22  H    5.501941   4.225009   7.479452   5.234368   2.099236
    23  C    3.603948   4.287624   4.066650   5.515659   6.279880
    24  H    3.804649   4.739267   4.315396   5.891093   7.034694
    25  H    4.142830   4.785124   3.666642   5.490226   6.614452
    26  H    4.301652   4.784486   5.079206   6.356215   6.454067
    27  C    4.428593   5.230298   1.437408   4.094475   7.237866
    28  H    4.994803   5.618422   2.097162   4.590942   7.300724
    29  H    4.282420   5.265197   2.113819   4.647806   7.523800
    30  H    5.209903   6.047217   2.034783   4.504137   8.064316
    31  C    2.571884   2.939239   2.914200   1.305062   4.985467
    32  O    1.661819   2.457781   3.173170   2.297352   5.037950
    33  C    3.940297   4.326141   3.821538   2.358008   6.158951
    34  H    4.469693   5.027161   3.501159   2.782814   6.951940
    35  H    4.623072   4.727275   4.445439   2.517278   6.071571
    36  H    4.144621   4.630220   4.593192   3.255180   6.623725
                   11         12         13         14         15
    11  H    0.000000
    12  H    1.791318   0.000000
    13  H    3.060835   2.575022   0.000000
    14  H    3.259853   2.472225   2.564754   0.000000
    15  H    4.868554   4.312005   2.644243   2.372307   0.000000
    16  H    5.494085   5.852550   4.036798   4.274639   2.837014
    17  H    4.362337   5.319363   3.736617   4.823240   4.251744
    18  O    5.195738   5.234569   2.816696   4.178277   2.472589
    19  C    2.614773   2.697637   3.867948   5.029477   6.363695
    20  H    3.608531   3.662078   4.389688   5.911462   6.996815
    21  H    2.987457   2.519171   4.222124   4.976764   6.548870
    22  H    2.429977   3.122031   4.461048   5.378705   6.844440
    23  C    6.581748   6.468284   4.029538   5.119839   2.948018
    24  H    7.152856   7.244501   4.881837   5.810874   3.693614
    25  H    6.826530   6.485132   4.201134   4.839663   2.487520
    26  H    7.074518   6.881316   4.333964   5.801391   3.691276
    27  C    6.523568   6.270686   5.029287   3.902048   2.552705
    28  H    6.808210   6.267076   4.993935   3.884304   2.364106
    29  H    6.936940   6.835902   5.255419   4.619542   2.889013
    30  H    7.140173   6.940934   5.971741   4.523713   3.565812
    31  C    3.390232   4.262589   4.124447   3.234209   4.000059
    32  O    3.802067   4.802813   4.036590   3.880049   3.996794
    33  C    4.303392   5.283899   5.555677   4.327908   5.292654
    34  H    5.162500   5.896104   6.045156   4.519523   5.287418
    35  H    4.060464   5.013767   5.796410   4.373211   5.780884
    36  H    4.810689   6.031361   6.160057   5.265090   6.031979
                   16         17         18         19         20
    16  H    0.000000
    17  H    2.502855   0.000000
    18  O    2.096660   2.718255   0.000000
    19  C    7.353480   5.949333   6.367807   0.000000
    20  H    7.930326   6.395482   6.735528   1.094995   0.000000
    21  H    7.883710   6.740616   6.925147   1.103808   1.793590
    22  H    7.518540   5.915589   6.782438   1.103738   1.793892
    23  C    2.531183   3.859762   1.437507   7.708178   8.030566
    24  H    2.359924   3.835366   2.099083   8.453620   8.791863
    25  H    2.829871   4.605974   2.111944   8.038140   8.437069
    26  H    3.556663   4.453096   2.032940   7.853686   8.034458
    27  C    2.891448   5.180008   4.003270   8.520892   9.265784
    28  H    3.592535   5.814390   4.180971   8.583032   9.291539
    29  H    2.364893   4.844723   3.615976   8.869689   9.535341
    30  H    3.677878   5.926653   5.040368   9.287567  10.094102
    31  C    3.383235   3.274460   4.457792   5.930008   6.818997
    32  O    2.600684   2.108448   3.735297   6.106528   6.852547
    33  C    4.518752   4.450075   5.867636   6.906938   7.851382
    34  H    4.540698   5.023949   6.112306   7.774011   8.734081
    35  H    5.424444   5.205906   6.565819   6.628202   7.632623
    36  H    4.785863   4.390180   6.222978   7.333163   8.213418
                   21         22         23         24         25
    21  H    0.000000
    22  H    1.800245   0.000000
    23  C    8.213304   8.182111   0.000000
    24  H    9.023208   8.825265   1.101955   0.000000
    25  H    8.410570   8.562124   1.102942   1.801164   0.000000
    26  H    8.381451   8.415014   1.094692   1.793972   1.790054
    27  C    8.701453   8.802740   3.920036   4.040504   3.260204
    28  H    8.672024   8.988653   3.957691   4.291841   3.072736
    29  H    9.167108   9.146292   3.284147   3.170112   2.739217
    30  H    9.424488   9.497072   4.945242   4.941407   4.290375
    31  C    6.313239   5.719812   5.534294   5.676902   5.668737
    32  O    6.671806   5.925513   4.813826   4.820596   5.157790
    33  C    7.225710   6.523730   6.853675   6.874648   6.940972
    34  H    8.022076   7.472739   6.914923   6.876844   6.865962
    35  H    6.831226   6.174845   7.629902   7.758594   7.674432
    36  H    7.771770   6.844400   7.207383   7.098984   7.426108
                   26         27         28         29         30
    26  H    0.000000
    27  C    4.932394   0.000000
    28  H    4.834377   1.101884   0.000000
    29  H    4.322321   1.102344   1.799790   0.000000
    30  H    5.970143   1.094624   1.793324   1.788596   0.000000
    31  C    6.435339   4.259176   5.003866   4.582598   4.582520
    32  O    5.683048   4.335632   5.138633   4.348905   4.806220
    33  C    7.804422   5.038060   5.877139   5.419703   5.054537
    34  H    7.933825   4.528856   5.413335   4.972015   4.335272
    35  H    8.542328   5.728462   6.456704   6.245652   5.723761
    36  H    8.139187   5.723604   6.643377   5.934570   5.738525
                   31         32         33         34         35
    31  C    0.000000
    32  O    1.274040   0.000000
    33  C    1.483216   2.374752   0.000000
    34  H    2.096987   2.933757   1.101146   0.000000
    35  H    2.126664   3.207866   1.096064   1.771668   0.000000
    36  H    2.131480   2.513189   1.093077   1.789294   1.809425
                   36
    36  H    0.000000
 Stoichiometry    C11H19O6(1+)
 Framework group  C1[X(C11H19O6)]
 Deg. of freedom   102
 Full point group                 C1      NOp   1
 Largest Abelian subgroup         C1      NOp   1
 Largest concise Abelian subgroup C1      NOp   1
                         Standard orientation:                         
 ---------------------------------------------------------------------
 Center     Atomic      Atomic             Coordinates (Angstroms)
 Number     Number       Type             X           Y           Z
 ---------------------------------------------------------------------
      1          6           0        2.643696   -0.002702   -0.674825
      2          6           0        1.231529   -0.499187   -0.408036
      3          6           0        0.128435    0.307165   -1.070561
      4          6           0       -1.260010   -0.305174   -0.828277
      5          6           0       -1.354269   -0.886952    0.619704
      6          6           0       -0.223970   -0.321792    1.471566
      7          8           0        1.029552   -0.495558    1.050488
      8          8           0       -2.220748    0.688403   -1.116311
      9          8           0        0.171287    1.726491   -0.600801
     10          8           0        3.523468   -1.016733   -0.256175
     11          1           0        2.823900    0.946594   -0.131296
     12          1           0        2.745796    0.206414   -1.760669
     13          1           0        1.158907   -1.547813   -0.743214
     14          1           0        0.313565    0.426691   -2.144890
     15          1           0       -1.336821   -1.161412   -1.526832
     16          1           0       -2.314488   -0.580875    1.072359
     17          1           0       -0.291393   -0.524224    2.544826
     18          8           0       -1.164048   -2.286486    0.668175
     19          6           0        4.897133   -0.629630   -0.364237
     20          1           0        5.488108   -1.484672   -0.019760
     21          1           0        5.166227   -0.397069   -1.409175
     22          1           0        5.115453    0.245722    0.271635
     23          6           0       -2.373043   -3.043810    0.491492
     24          1           0       -3.109136   -2.793949    1.272544
     25          1           0       -2.819274   -2.876725   -0.503214
     26          1           0       -2.086120   -4.096277    0.582821
     27          6           0       -3.517017    0.164127   -1.449420
     28          1           0       -3.455948   -0.491603   -2.332844
     29          1           0       -3.965955   -0.391351   -0.609740
     30          1           0       -4.145650    1.029897   -1.680647
     31          6           0       -0.292892    2.084145    0.565307
     32          8           0       -0.578247    1.300819    1.528712
     33          6           0       -0.493893    3.542200    0.748621
     34          1           0       -1.454356    3.806533    0.279407
     35          1           0        0.291945    4.100653    0.227137
     36          1           0       -0.529060    3.797636    1.810851
 ---------------------------------------------------------------------
 Rotational constants (GHZ):      0.6063255      0.3673737      0.2869271
 Leave Link  202 at Tue Oct 24 12:45:25 2017, MaxMem= 13421772800 cpu:         0.6
 (Enter /share/apps//g09/l301.exe)
 Standard basis: 6-311+G(d,p) (5D, 7F)
 Ernie: Thresh=  0.10000D-02 Tol=  0.10000D-05 Strict=F.
 There are   505 symmetry adapted cartesian basis functions of A   symmetry.
 There are   488 symmetry adapted basis functions of A   symmetry.
   488 basis functions,   764 primitive gaussians,   505 cartesian basis functions
    66 alpha electrons       66 beta electrons
       nuclear repulsion energy      1426.4163813975 Hartrees.
 IExCor= 1009 DFT=T Ex+Corr=PBE1PBE ExCW=0 ScaHFX=  0.250000
 ScaDFX=  0.750000  0.750000  1.000000  1.000000 ScalE2=  1.000000  1.000000
 IRadAn=      0 IRanWt=     -1 IRanGd=            0 ICorTp=0 IEmpDi=131
 NAtoms=   36 NActive=   36 NUniq=   36 SFac= 1.00D+00 NAtFMM=   60 NAOKFM=F Big=F
 Integral buffers will be    131072 words long.
 Raffenetti 2 integral format.
 Two-electron integral symmetry is turned on.
 R6Disp:  Grimme-D3 Dispersion energy=       -0.0242066183 Hartrees.
 Nuclear repulsion after empirical dispersion term =     1426.3921747791 Hartrees.
 Leave Link  301 at Tue Oct 24 12:45:25 2017, MaxMem= 13421772800 cpu:         2.1
 (Enter /share/apps//g09/l302.exe)
 NPDir=0 NMtPBC=     1 NCelOv=     1 NCel=       1 NClECP=     1 NCelD=      1
         NCelK=      1 NCelE2=     1 NClLst=     1 CellRange=     0.0.
 One-electron integrals computed using PRISM.
 NBasis=   488 RedAO= T EigKep=  1.41D-06  NBF=   488
 NBsUse=   488 1.00D-06 EigRej= -1.00D+00 NBFU=   488
 Precomputing XC quadrature grid using
 IXCGrd= 4 IRadAn=           0 IRanWt=          -1 IRanGd=           0 AccXCQ= 0.00D+00.
 Generated NRdTot=       0 NPtTot=           0 NUsed=           0 NTot=          32
 NSgBfM=   504   504   504   504   504 MxSgAt=    36 MxSgA2=    36.
 Leave Link  302 at Tue Oct 24 12:45:26 2017, MaxMem= 13421772800 cpu:        12.7
 (Enter /share/apps//g09/l303.exe)
 DipDrv:  MaxL=1.
 Leave Link  303 at Tue Oct 24 12:45:27 2017, MaxMem= 13421772800 cpu:         7.1
 (Enter /share/apps//g09/l401.exe)
 ExpMin= 4.38D-02 ExpMax= 8.59D+03 ExpMxC= 1.30D+03 IAcc=2 IRadAn=         4 AccDes= 0.00D+00
 Harris functional with IExCor= 1009 and IRadAn=       4 diagonalized for initial guess.
 HarFok:  IExCor= 1009 AccDes= 0.00D+00 IRadAn=         4 IDoV= 1 UseB2=F ITyADJ=14
 ICtDFT=  3500011 ScaDFX=  1.000000  1.000000  1.000000  1.000000
 FoFCou: FMM=F IPFlag=           0 FMFlag=      100000 FMFlg1=           0
         NFxFlg=           0 DoJE=T BraDBF=F KetDBF=T FulRan=T
         wScrn=  0.000000 ICntrl=     500 IOpCl=  0 I1Cent=   200000004 NGrid=           0
         NMat0=    1 NMatS0=      1 NMatT0=    0 NMatD0=    1 NMtDS0=    0 NMtDT0=    0
 Petite list used in FoFCou.
 Harris En= -881.101961677615    
 JPrj=0 DoOrth=F DoCkMO=F.
 Leave Link  401 at Tue Oct 24 12:45:28 2017, MaxMem= 13421772800 cpu:        24.2
 (Enter /share/apps//g09/l502.exe)
 Closed shell SCF:
 Using DIIS extrapolation, IDIIS=  1040.
 Integral symmetry usage will be decided dynamically.
 Keep R1 ints in memory in canonical form, NReq=7183787934.
 IVT=      797493 IEndB=      797493 NGot= 13421772800 MDV=  6302761722
 LenX=  6302761722 LenY=  6302506192
 Requested convergence on RMS density matrix=1.00D-08 within 128 cycles.
 Requested convergence on MAX density matrix=1.00D-06.
 Requested convergence on             energy=1.00D-06.
 No special actions if energy rises.
 FoFCou: FMM=F IPFlag=           0 FMFlag=           0 FMFlg1=           0
         NFxFlg=           0 DoJE=F BraDBF=F KetDBF=F FulRan=T
         wScrn=  0.000000 ICntrl=     600 IOpCl=  0 I1Cent=           0 NGrid=           0
         NMat0=    1 NMatS0= 119316 NMatT0=    0 NMatD0=    1 NMtDS0=    0 NMtDT0=    0
 Symmetry not used in FoFCou.

 Cycle   1  Pass 1  IDiag  1:
 E= -880.646861553679    
 DIIS: error= 1.59D-02 at cycle   1 NSaved=   1.
 NSaved= 1 IEnMin= 1 EnMin= -880.646861553679     IErMin= 1 ErrMin= 1.59D-02
 ErrMax= 1.59D-02  0.00D+00 EMaxC= 1.00D-01 BMatC= 3.72D-01 BMatP= 3.72D-01
 IDIUse=3 WtCom= 8.41D-01 WtEn= 1.59D-01
 Coeff-Com:  0.100D+01
 Coeff-En:   0.100D+01
 Coeff:      0.100D+01
 Gap=     0.116 Goal=   None    Shift=    0.000
 GapD=    0.116 DampG=1.000 DampE=0.500 DampFc=0.5000 IDamp=-1.
 Damping current iteration by 5.00D-01
 RMSDP=2.61D-02 MaxDP=4.92D+00              OVMax= 1.33D-01

 Cycle   2  Pass 1  IDiag  1:
 E= -880.771880922059     Delta-E=       -0.125019368380 Rises=F Damp=T
 DIIS: error= 3.95D-03 at cycle   2 NSaved=   2.
 NSaved= 2 IEnMin= 2 EnMin= -880.771880922059     IErMin= 2 ErrMin= 3.95D-03
 ErrMax= 3.95D-03  0.00D+00 EMaxC= 1.00D-01 BMatC= 2.92D-02 BMatP= 3.72D-01
 IDIUse=3 WtCom= 9.61D-01 WtEn= 3.95D-02
 Coeff-Com: -0.675D-02 0.101D+01
 Coeff-En:   0.510D-01 0.949D+00
 Coeff:     -0.447D-02 0.100D+01
 Gap=     0.224 Goal=   None    Shift=    0.000
 RMSDP=9.02D-03 MaxDP=1.60D+00 DE=-1.25D-01 OVMax= 9.43D-02

 Cycle   3  Pass 1  IDiag  1:
 E= -880.906360459101     Delta-E=       -0.134479537041 Rises=F Damp=F
 DIIS: error= 5.88D-03 at cycle   3 NSaved=   3.
 NSaved= 3 IEnMin= 3 EnMin= -880.906360459101     IErMin= 2 ErrMin= 3.95D-03
 ErrMax= 5.88D-03  0.00D+00 EMaxC= 1.00D-01 BMatC= 2.09D-02 BMatP= 2.92D-02
 IDIUse=3 WtCom= 9.41D-01 WtEn= 5.88D-02
 Coeff-Com: -0.902D-01 0.478D+00 0.612D+00
 Coeff-En:   0.000D+00 0.000D+00 0.100D+01
 Coeff:     -0.849D-01 0.450D+00 0.635D+00
 Gap=     0.186 Goal=   None    Shift=    0.000
 RMSDP=1.98D-03 MaxDP=3.78D-01 DE=-1.34D-01 OVMax= 2.17D-02

 Cycle   4  Pass 1  IDiag  1:
 E= -880.918972765480     Delta-E=       -0.012612306379 Rises=F Damp=F
 DIIS: error= 2.36D-03 at cycle   4 NSaved=   4.
 NSaved= 4 IEnMin= 4 EnMin= -880.918972765480     IErMin= 4 ErrMin= 2.36D-03
 ErrMax= 2.36D-03  0.00D+00 EMaxC= 1.00D-01 BMatC= 4.10D-03 BMatP= 2.09D-02
 IDIUse=3 WtCom= 9.76D-01 WtEn= 2.36D-02
 Coeff-Com: -0.449D-01 0.146D+00 0.357D+00 0.541D+00
 Coeff-En:   0.000D+00 0.000D+00 0.141D+00 0.859D+00
 Coeff:     -0.438D-01 0.143D+00 0.352D+00 0.549D+00
 Gap=     0.191 Goal=   None    Shift=    0.000
 RMSDP=1.18D-03 MaxDP=2.29D-01 DE=-1.26D-02 OVMax= 6.90D-03

 Cycle   5  Pass 1  IDiag  1:
 E= -880.921967926663     Delta-E=       -0.002995161184 Rises=F Damp=F
 DIIS: error= 2.95D-04 at cycle   5 NSaved=   5.
 NSaved= 5 IEnMin= 5 EnMin= -880.921967926663     IErMin= 5 ErrMin= 2.95D-04
 ErrMax= 2.95D-04  0.00D+00 EMaxC= 1.00D-01 BMatC= 1.29D-04 BMatP= 4.10D-03
 IDIUse=3 WtCom= 9.97D-01 WtEn= 2.95D-03
 Coeff-Com: -0.131D-01 0.304D-01 0.111D+00 0.237D+00 0.635D+00
 Coeff-En:   0.000D+00 0.000D+00 0.000D+00 0.000D+00 0.100D+01
 Coeff:     -0.131D-01 0.303D-01 0.110D+00 0.236D+00 0.636D+00
 Gap=     0.193 Goal=   None    Shift=    0.000
 RMSDP=1.77D-04 MaxDP=1.80D-02 DE=-3.00D-03 OVMax= 1.57D-03

 Cycle   6  Pass 1  IDiag  1:
 E= -880.922049801873     Delta-E=       -0.000081875210 Rises=F Damp=F
 DIIS: error= 1.64D-04 at cycle   6 NSaved=   6.
 NSaved= 6 IEnMin= 6 EnMin= -880.922049801873     IErMin= 6 ErrMin= 1.64D-04
 ErrMax= 1.64D-04  0.00D+00 EMaxC= 1.00D-01 BMatC= 2.11D-05 BMatP= 1.29D-04
 IDIUse=3 WtCom= 9.98D-01 WtEn= 1.64D-03
 Coeff-Com: -0.508D-02 0.895D-02 0.438D-01 0.108D+00 0.379D+00 0.466D+00
 Coeff-En:   0.000D+00 0.000D+00 0.000D+00 0.000D+00 0.631D-01 0.937D+00
 Coeff:     -0.507D-02 0.893D-02 0.438D-01 0.108D+00 0.378D+00 0.466D+00
 Gap=     0.193 Goal=   None    Shift=    0.000
 RMSDP=5.72D-05 MaxDP=8.62D-03 DE=-8.19D-05 OVMax= 5.67D-04

 Cycle   7  Pass 1  IDiag  1:
 E= -880.922064966653     Delta-E=       -0.000015164780 Rises=F Damp=F
 DIIS: error= 3.49D-05 at cycle   7 NSaved=   7.
 NSaved= 7 IEnMin= 7 EnMin= -880.922064966653     IErMin= 7 ErrMin= 3.49D-05
 ErrMax= 3.49D-05  0.00D+00 EMaxC= 1.00D-01 BMatC= 9.85D-07 BMatP= 2.11D-05
 IDIUse=1 WtCom= 1.00D+00 WtEn= 0.00D+00
 Coeff-Com: -0.157D-02 0.230D-02 0.138D-01 0.377D-01 0.151D+00 0.240D+00
 Coeff-Com:  0.556D+00
 Coeff:     -0.157D-02 0.230D-02 0.138D-01 0.377D-01 0.151D+00 0.240D+00
 Coeff:      0.556D+00
 Gap=     0.193 Goal=   None    Shift=    0.000
 RMSDP=2.51D-05 MaxDP=3.33D-03 DE=-1.52D-05 OVMax= 1.85D-04

 Cycle   8  Pass 1  IDiag  1:
 E= -880.922065613574     Delta-E=       -0.000000646921 Rises=F Damp=F
 DIIS: error= 1.24D-05 at cycle   8 NSaved=   8.
 NSaved= 8 IEnMin= 8 EnMin= -880.922065613574     IErMin= 8 ErrMin= 1.24D-05
 ErrMax= 1.24D-05  0.00D+00 EMaxC= 1.00D-01 BMatC= 1.79D-07 BMatP= 9.85D-07
 IDIUse=1 WtCom= 1.00D+00 WtEn= 0.00D+00
 Coeff-Com: -0.106D-03-0.771D-04 0.930D-03 0.474D-02 0.260D-01 0.586D-01
 Coeff-Com:  0.321D+00 0.589D+00
 Coeff:     -0.106D-03-0.771D-04 0.930D-03 0.474D-02 0.260D-01 0.586D-01
 Coeff:      0.321D+00 0.589D+00
 Gap=     0.192 Goal=   None    Shift=    0.000
 RMSDP=8.64D-06 MaxDP=9.01D-04 DE=-6.47D-07 OVMax= 7.79D-05

 Cycle   9  Pass 1  IDiag  1:
 E= -880.922065721893     Delta-E=       -0.000000108319 Rises=F Damp=F
 DIIS: error= 6.79D-06 at cycle   9 NSaved=   9.
 NSaved= 9 IEnMin= 9 EnMin= -880.922065721893     IErMin= 9 ErrMin= 6.79D-06
 ErrMax= 6.79D-06  0.00D+00 EMaxC= 1.00D-01 BMatC= 3.57D-08 BMatP= 1.79D-07
 IDIUse=1 WtCom= 1.00D+00 WtEn= 0.00D+00
 Coeff-Com:  0.613D-04-0.224D-03-0.666D-03-0.468D-03 0.142D-02 0.113D-01
 Coeff-Com:  0.141D+00 0.372D+00 0.476D+00
 Coeff:      0.613D-04-0.224D-03-0.666D-03-0.468D-03 0.142D-02 0.113D-01
 Coeff:      0.141D+00 0.372D+00 0.476D+00
 Gap=     0.193 Goal=   None    Shift=    0.000
 RMSDP=2.13D-06 MaxDP=2.46D-04 DE=-1.08D-07 OVMax= 3.97D-05

 Cycle  10  Pass 1  IDiag  1:
 E= -880.922065747545     Delta-E=       -0.000000025652 Rises=F Damp=F
 DIIS: error= 1.28D-06 at cycle  10 NSaved=  10.
 NSaved=10 IEnMin=10 EnMin= -880.922065747545     IErMin=10 ErrMin= 1.28D-06
 ErrMax= 1.28D-06  0.00D+00 EMaxC= 1.00D-01 BMatC= 1.29D-09 BMatP= 3.57D-08
 IDIUse=1 WtCom= 1.00D+00 WtEn= 0.00D+00
 Coeff-Com:  0.460D-04-0.103D-03-0.495D-03-0.901D-03-0.301D-02-0.232D-02
 Coeff-Com:  0.290D-01 0.102D+00 0.209D+00 0.666D+00
 Coeff:      0.460D-04-0.103D-03-0.495D-03-0.901D-03-0.301D-02-0.232D-02
 Coeff:      0.290D-01 0.102D+00 0.209D+00 0.666D+00
 Gap=     0.193 Goal=   None    Shift=    0.000
 RMSDP=1.33D-06 MaxDP=2.22D-04 DE=-2.57D-08 OVMax= 5.39D-06

 Cycle  11  Pass 1  IDiag  1:
 E= -880.922065748503     Delta-E=       -0.000000000958 Rises=F Damp=F
 DIIS: error= 2.25D-07 at cycle  11 NSaved=  11.
 NSaved=11 IEnMin=11 EnMin= -880.922065748503     IErMin=11 ErrMin= 2.25D-07
 ErrMax= 2.25D-07  0.00D+00 EMaxC= 1.00D-01 BMatC= 6.90D-11 BMatP= 1.29D-09
 IDIUse=1 WtCom= 1.00D+00 WtEn= 0.00D+00
 Coeff-Com:  0.144D-04-0.294D-04-0.166D-03-0.328D-03-0.124D-02-0.139D-02
 Coeff-Com:  0.493D-02 0.225D-01 0.588D-01 0.274D+00 0.642D+00
 Coeff:      0.144D-04-0.294D-04-0.166D-03-0.328D-03-0.124D-02-0.139D-02
 Coeff:      0.493D-02 0.225D-01 0.588D-01 0.274D+00 0.642D+00
 Gap=     0.193 Goal=   None    Shift=    0.000
 RMSDP=1.66D-07 MaxDP=2.92D-05 DE=-9.58D-10 OVMax= 1.19D-06

 Cycle  12  Pass 1  IDiag  1:
 E= -880.922065748554     Delta-E=       -0.000000000052 Rises=F Damp=F
 DIIS: error= 1.22D-07 at cycle  12 NSaved=  12.
 NSaved=12 IEnMin=12 EnMin= -880.922065748554     IErMin=12 ErrMin= 1.22D-07
 ErrMax= 1.22D-07  0.00D+00 EMaxC= 1.00D-01 BMatC= 1.05D-11 BMatP= 6.90D-11
 IDIUse=1 WtCom= 1.00D+00 WtEn= 0.00D+00
 Coeff-Com:  0.110D-05-0.122D-05-0.213D-04-0.486D-04-0.230D-03-0.362D-03
 Coeff-Com: -0.107D-02-0.155D-02 0.356D-02 0.541D-01 0.319D+00 0.627D+00
 Coeff:      0.110D-05-0.122D-05-0.213D-04-0.486D-04-0.230D-03-0.362D-03
 Coeff:     -0.107D-02-0.155D-02 0.356D-02 0.541D-01 0.319D+00 0.627D+00
 Gap=     0.193 Goal=   None    Shift=    0.000
 RMSDP=5.41D-08 MaxDP=7.71D-06 DE=-5.18D-11 OVMax= 4.27D-07

 Cycle  13  Pass 1  IDiag  1:
 E= -880.922065748539     Delta-E=        0.000000000015 Rises=F Damp=F
 DIIS: error= 2.39D-08 at cycle  13 NSaved=  13.
 NSaved=13 IEnMin=12 EnMin= -880.922065748554     IErMin=13 ErrMin= 2.39D-08
 ErrMax= 2.39D-08  0.00D+00 EMaxC= 1.00D-01 BMatC= 5.04D-13 BMatP= 1.05D-11
 IDIUse=1 WtCom= 1.00D+00 WtEn= 0.00D+00
 Coeff-Com: -0.305D-06 0.104D-05 0.203D-06-0.201D-05-0.215D-04-0.572D-04
 Coeff-Com: -0.696D-03-0.189D-02-0.162D-02 0.335D-02 0.834D-01 0.248D+00
 Coeff-Com:  0.669D+00
 Coeff:     -0.305D-06 0.104D-05 0.203D-06-0.201D-05-0.215D-04-0.572D-04
 Coeff:     -0.696D-03-0.189D-02-0.162D-02 0.335D-02 0.834D-01 0.248D+00
 Coeff:      0.669D+00
 Gap=     0.193 Goal=   None    Shift=    0.000
 RMSDP=2.86D-08 MaxDP=5.69D-06 DE= 1.50D-11 OVMax= 1.14D-07

 Cycle  14  Pass 1  IDiag  1:
 E= -880.922065748524     Delta-E=        0.000000000015 Rises=F Damp=F
 DIIS: error= 1.25D-08 at cycle  14 NSaved=  14.
 NSaved=14 IEnMin=12 EnMin= -880.922065748554     IErMin=14 ErrMin= 1.25D-08
 ErrMax= 1.25D-08  0.00D+00 EMaxC= 1.00D-01 BMatC= 1.03D-13 BMatP= 5.04D-13
 IDIUse=1 WtCom= 1.00D+00 WtEn= 0.00D+00
 Coeff-Com: -0.262D-06 0.676D-06 0.203D-05 0.314D-05 0.896D-05 0.237D-05
 Coeff-Com: -0.297D-03-0.922D-03-0.120D-02-0.353D-02 0.160D-01 0.772D-01
 Coeff-Com:  0.367D+00 0.546D+00
 Coeff:     -0.262D-06 0.676D-06 0.203D-05 0.314D-05 0.896D-05 0.237D-05
 Coeff:     -0.297D-03-0.922D-03-0.120D-02-0.353D-02 0.160D-01 0.772D-01
 Coeff:      0.367D+00 0.546D+00
 Gap=     0.193 Goal=   None    Shift=    0.000
 RMSDP=9.58D-09 MaxDP=1.66D-06 DE= 1.50D-11 OVMax= 4.45D-08

 Cycle  15  Pass 1  IDiag  1:
 E= -880.922065748546     Delta-E=       -0.000000000022 Rises=F Damp=F
 DIIS: error= 1.93D-09 at cycle  15 NSaved=  15.
 NSaved=15 IEnMin=12 EnMin= -880.922065748554     IErMin=15 ErrMin= 1.93D-09
 ErrMax= 1.93D-09  0.00D+00 EMaxC= 1.00D-01 BMatC= 5.18D-15 BMatP= 1.03D-13
 IDIUse=1 WtCom= 1.00D+00 WtEn= 0.00D+00
 Coeff-Com: -0.782D-07 0.180D-06 0.868D-06 0.157D-05 0.621D-05 0.782D-05
 Coeff-Com: -0.545D-04-0.184D-03-0.320D-03-0.193D-02-0.190D-02 0.656D-02
 Coeff-Com:  0.853D-01 0.233D+00 0.680D+00
 Coeff:     -0.782D-07 0.180D-06 0.868D-06 0.157D-05 0.621D-05 0.782D-05
 Coeff:     -0.545D-04-0.184D-03-0.320D-03-0.193D-02-0.190D-02 0.656D-02
 Coeff:      0.853D-01 0.233D+00 0.680D+00
 Gap=     0.193 Goal=   None    Shift=    0.000
 RMSDP=1.73D-08 MaxDP=3.94D-06 DE=-2.18D-11 OVMax= 1.47D-08

 Cycle  16  Pass 1  IDiag  1:
 E= -880.922065748587     Delta-E=       -0.000000000041 Rises=F Damp=F
 DIIS: error= 4.40D-10 at cycle  16 NSaved=  16.
 NSaved=16 IEnMin=16 EnMin= -880.922065748587     IErMin=16 ErrMin= 4.40D-10
 ErrMax= 4.40D-10  0.00D+00 EMaxC= 1.00D-01 BMatC= 3.20D-16 BMatP= 5.18D-15
 IDIUse=1 WtCom= 1.00D+00 WtEn= 0.00D+00
 Large coefficients: NSaved= 16 BigCof=    0.00 CofMax=   10.00 Det=-3.04D-15
 Inversion failed.  Reducing to 15 matrices.
 Coeff-Com: -0.114D-08 0.901D-07 0.168D-06 0.970D-06 0.229D-05 0.292D-06
 Coeff-Com:  0.238D-05-0.180D-04-0.439D-03-0.166D-02-0.255D-02 0.964D-02
 Coeff-Com:  0.527D-01 0.259D+00 0.683D+00
 Coeff:     -0.114D-08 0.901D-07 0.168D-06 0.970D-06 0.229D-05 0.292D-06
 Coeff:      0.238D-05-0.180D-04-0.439D-03-0.166D-02-0.255D-02 0.964D-02
 Coeff:      0.527D-01 0.259D+00 0.683D+00
 Gap=     0.193 Goal=   None    Shift=    0.000
 RMSDP=2.38D-08 MaxDP=3.89D-06 DE=-4.09D-11 OVMax= 3.12D-09

 Cycle  17  Pass 1  IDiag  1:
 E= -880.922065748561     Delta-E=        0.000000000026 Rises=F Damp=F
 DIIS: error= 2.67D-10 at cycle  17 NSaved=  16.
 NSaved=16 IEnMin=15 EnMin= -880.922065748587     IErMin=16 ErrMin= 2.67D-10
 ErrMax= 2.67D-10  0.00D+00 EMaxC= 1.00D-01 BMatC= 6.73D-17 BMatP= 3.20D-16
 IDIUse=1 WtCom= 1.00D+00 WtEn= 0.00D+00
 Large coefficients: NSaved= 16 BigCof=    0.00 CofMax=   10.00 Det=-4.64D-16
 Inversion failed.  Reducing to 15 matrices.
 Coeff-Com:  0.269D-07 0.611D-07 0.220D-06 0.738D-06 0.339D-05 0.115D-04
 Coeff-Com:  0.708D-05-0.661D-04-0.610D-03-0.174D-02-0.366D-02 0.101D-02
 Coeff-Com:  0.534D-01 0.349D+00 0.603D+00
 Coeff:      0.269D-07 0.611D-07 0.220D-06 0.738D-06 0.339D-05 0.115D-04
 Coeff:      0.708D-05-0.661D-04-0.610D-03-0.174D-02-0.366D-02 0.101D-02
 Coeff:      0.534D-01 0.349D+00 0.603D+00
 Gap=     0.193 Goal=   None    Shift=    0.000
 RMSDP=1.63D-08 MaxDP=2.93D-06 DE= 2.64D-11 OVMax= 1.46D-09

 Cycle  18  Pass 1  IDiag  1:
 E= -880.922065748570     Delta-E=       -0.000000000009 Rises=F Damp=F
 DIIS: error= 9.21D-11 at cycle  18 NSaved=  16.
 NSaved=16 IEnMin=14 EnMin= -880.922065748587     IErMin=16 ErrMin= 9.21D-11
 ErrMax= 9.21D-11  0.00D+00 EMaxC= 1.00D-01 BMatC= 5.22D-18 BMatP= 6.73D-17
 IDIUse=1 WtCom= 1.00D+00 WtEn= 0.00D+00
 Large coefficients: NSaved= 16 BigCof=    0.00 CofMax=   10.00 Det=-4.94D-17
 Inversion failed.  Reducing to 15 matrices.
 Coeff-Com:  0.611D-08-0.262D-07 0.111D-06 0.164D-05 0.565D-05 0.688D-05
 Coeff-Com:  0.165D-04-0.106D-03-0.503D-03-0.233D-02-0.408D-02 0.180D-02
 Coeff-Com:  0.106D+00 0.269D+00 0.630D+00
 Coeff:      0.611D-08-0.262D-07 0.111D-06 0.164D-05 0.565D-05 0.688D-05
 Coeff:      0.165D-04-0.106D-03-0.503D-03-0.233D-02-0.408D-02 0.180D-02
 Coeff:      0.106D+00 0.269D+00 0.630D+00
 Gap=     0.193 Goal=   None    Shift=    0.000
 RMSDP=7.44D-09 MaxDP=1.09D-06 DE=-9.09D-12 OVMax= 5.13D-10

 Cycle  19  Pass 1  IDiag  1:
 E= -880.922065748529     Delta-E=        0.000000000040 Rises=F Damp=F
 DIIS: error= 1.45D-10 at cycle  19 NSaved=  16.
 NSaved=16 IEnMin=13 EnMin= -880.922065748587     IErMin=15 ErrMin= 9.21D-11
 ErrMax= 1.45D-10  0.00D+00 EMaxC= 1.00D-01 BMatC= 2.15D-18 BMatP= 5.22D-18
 IDIUse=1 WtCom= 1.00D+00 WtEn= 0.00D+00
 Large coefficients: NSaved= 16 BigCof=    0.00 CofMax=   10.00 Det=-9.25D-18
 Inversion failed.  Reducing to 15 matrices.
 Coeff-Com: -0.273D-07 0.171D-07 0.436D-06 0.175D-05 0.172D-05 0.339D-05
 Coeff-Com: -0.550D-04-0.234D-03-0.115D-02-0.220D-02-0.106D-02 0.424D-01
 Coeff-Com:  0.111D+00 0.389D+00 0.463D+00
 Coeff:     -0.273D-07 0.171D-07 0.436D-06 0.175D-05 0.172D-05 0.339D-05
 Coeff:     -0.550D-04-0.234D-03-0.115D-02-0.220D-02-0.106D-02 0.424D-01
 Coeff:      0.111D+00 0.389D+00 0.463D+00
 Gap=     0.193 Goal=   None    Shift=    0.000
 RMSDP=3.60D-09 MaxDP=4.74D-07 DE= 4.05D-11 OVMax= 1.92D-10

 SCF Done:  E(RPBE1PBE) =  -880.922065749     A.U. after   19 cycles
            NFock= 19  Conv=0.36D-08     -V/T= 2.0043
 KE= 8.771278360646D+02 PE=-4.895572472566D+03 EE= 1.711130395974D+03
 Leave Link  502 at Tue Oct 24 12:49:58 2017, MaxMem= 13421772800 cpu:      1184.6
 (Enter /share/apps//g09/l601.exe)
 Copying SCF densities to generalized density rwf, IOpCl= 0 IROHF=0.

 **********************************************************************

            Population analysis using the SCF density.

 **********************************************************************

 Orbital symmetries:
       Occupied  (A) (A) (A) (A) (A) (A) (A) (A) (A) (A) (A) (A)
                 (A) (A) (A) (A) (A) (A) (A) (A) (A) (A) (A) (A)
                 (A) (A) (A) (A) (A) (A) (A) (A) (A) (A) (A) (A)
                 (A) (A) (A) (A) (A) (A) (A) (A) (A) (A) (A) (A)
                 (A) (A) (A) (A) (A) (A) (A) (A) (A) (A) (A) (A)
                 (A) (A) (A) (A) (A) (A)
       Virtual   (A) (A) (A) (A) (A) (A) (A) (A) (A) (A) (A) (A)
                 (A) (A) (A) (A) (A) (A) (A) (A) (A) (A) (A) (A)
                 (A) (A) (A) (A) (A) (A) (A) (A) (A) (A) (A) (A)
                 (A) (A) (A) (A) (A) (A) (A) (A) (A) (A) (A) (A)
                 (A) (A) (A) (A) (A) (A) (A) (A) (A) (A) (A) (A)
                 (A) (A) (A) (A) (A) (A) (A) (A) (A) (A) (A) (A)
                 (A) (A) (A) (A) (A) (A) (A) (A) (A) (A) (A) (A)
                 (A) (A) (A) (A) (A) (A) (A) (A) (A) (A) (A) (A)
                 (A) (A) (A) (A) (A) (A) (A) (A) (A) (A) (A) (A)
                 (A) (A) (A) (A) (A) (A) (A) (A) (A) (A) (A) (A)
                 (A) (A) (A) (A) (A) (A) (A) (A) (A) (A) (A) (A)
                 (A) (A) (A) (A) (A) (A) (A) (A) (A) (A) (A) (A)
                 (A) (A) (A) (A) (A) (A) (A) (A) (A) (A) (A) (A)
                 (A) (A) (A) (A) (A) (A) (A) (A) (A) (A) (A) (A)
                 (A) (A) (A) (A) (A) (A) (A) (A) (A) (A) (A) (A)
                 (A) (A) (A) (A) (A) (A) (A) (A) (A) (A) (A) (A)
                 (A) (A) (A) (A) (A) (A) (A) (A) (A) (A) (A) (A)
                 (A) (A) (A) (A) (A) (A) (A) (A) (A) (A) (A) (A)
                 (A) (A) (A) (A) (A) (A) (A) (A) (A) (A) (A) (A)
                 (A) (A) (A) (A) (A) (A) (A) (A) (A) (A) (A) (A)
                 (A) (A) (A) (A) (A) (A) (A) (A) (A) (A) (A) (A)
                 (A) (A) (A) (A) (A) (A) (A) (A) (A) (A) (A) (A)
                 (A) (A) (A) (A) (A) (A) (A) (A) (A) (A) (A) (A)
                 (A) (A) (A) (A) (A) (A) (A) (A) (A) (A) (A) (A)
                 (A) (A) (A) (A) (A) (A) (A) (A) (A) (A) (A) (A)
                 (A) (A) (A) (A) (A) (A) (A) (A) (A) (A) (A) (A)
                 (A) (A) (A) (A) (A) (A) (A) (A) (A) (A) (A) (A)
                 (A) (A) (A) (A) (A) (A) (A) (A) (A) (A) (A) (A)
                 (A) (A) (A) (A) (A) (A) (A) (A) (A) (A) (A) (A)
                 (A) (A) (A) (A) (A) (A) (A) (A) (A) (A) (A) (A)
                 (A) (A) (A) (A) (A) (A) (A) (A) (A) (A) (A) (A)
                 (A) (A) (A) (A) (A) (A) (A) (A) (A) (A) (A) (A)
                 (A) (A) (A) (A) (A) (A) (A) (A) (A) (A) (A) (A)
                 (A) (A) (A) (A) (A) (A) (A) (A) (A) (A) (A) (A)
                 (A) (A) (A) (A) (A) (A) (A) (A) (A) (A) (A) (A)
                 (A) (A)
 The electronic state is 1-A.
 Alpha  occ. eigenvalues --  -19.44955 -19.43679 -19.40730 -19.36665 -19.36124
 Alpha  occ. eigenvalues --  -19.32664 -10.56882 -10.51410 -10.47139 -10.44875
 Alpha  occ. eigenvalues --  -10.44822 -10.44522 -10.40797 -10.39876 -10.39370
 Alpha  occ. eigenvalues --  -10.38789 -10.36357  -1.34844  -1.27997  -1.25932
 Alpha  occ. eigenvalues --   -1.22427  -1.21191  -1.18404  -1.01426  -0.97896
 Alpha  occ. eigenvalues --   -0.94668  -0.89920  -0.87026  -0.85382  -0.82970
 Alpha  occ. eigenvalues --   -0.80778  -0.78662  -0.77019  -0.76273  -0.72381
 Alpha  occ. eigenvalues --   -0.70777  -0.68178  -0.67359  -0.66803  -0.65846
 Alpha  occ. eigenvalues --   -0.63921  -0.63422  -0.63144  -0.61447  -0.60998
 Alpha  occ. eigenvalues --   -0.60132  -0.59376  -0.58618  -0.57898  -0.57478
 Alpha  occ. eigenvalues --   -0.56964  -0.56309  -0.55181  -0.54345  -0.53936
 Alpha  occ. eigenvalues --   -0.53002  -0.51961  -0.51234  -0.49281  -0.48673
 Alpha  occ. eigenvalues --   -0.48126  -0.47007  -0.45315  -0.44630  -0.41172
 Alpha  occ. eigenvalues --   -0.39104
 Alpha virt. eigenvalues --   -0.19852  -0.12999  -0.11941  -0.09947  -0.09833
 Alpha virt. eigenvalues --   -0.08903  -0.07950  -0.07478  -0.07258  -0.06479
 Alpha virt. eigenvalues --   -0.06306  -0.05889  -0.05270  -0.04691  -0.04479
 Alpha virt. eigenvalues --   -0.04171  -0.03718  -0.03301  -0.02882  -0.02258
 Alpha virt. eigenvalues --   -0.02079  -0.01962  -0.01455  -0.01185  -0.00830
 Alpha virt. eigenvalues --   -0.00497  -0.00119   0.00776   0.01293   0.01370
 Alpha virt. eigenvalues --    0.02020   0.02225   0.02535   0.02963   0.03502
 Alpha virt. eigenvalues --    0.03970   0.04418   0.04547   0.04626   0.05413
 Alpha virt. eigenvalues --    0.05527   0.05717   0.06335   0.06675   0.07084
 Alpha virt. eigenvalues --    0.07639   0.07766   0.08577   0.08786   0.09091
 Alpha virt. eigenvalues --    0.09136   0.09630   0.09918   0.10370   0.10779
 Alpha virt. eigenvalues --    0.10941   0.11332   0.11459   0.12069   0.12258
 Alpha virt. eigenvalues --    0.12746   0.13253   0.13694   0.13955   0.14398
 Alpha virt. eigenvalues --    0.14680   0.15089   0.15535   0.16197   0.16686
 Alpha virt. eigenvalues --    0.17380   0.17796   0.17938   0.18294   0.18768
 Alpha virt. eigenvalues --    0.19265   0.19787   0.19965   0.20583   0.21040
 Alpha virt. eigenvalues --    0.21633   0.22100   0.22409   0.22995   0.23110
 Alpha virt. eigenvalues --    0.23597   0.24009   0.24676   0.24983   0.25339
 Alpha virt. eigenvalues --    0.26005   0.26458   0.27062   0.28029   0.28189
 Alpha virt. eigenvalues --    0.28932   0.29906   0.30571   0.30955   0.31503
 Alpha virt. eigenvalues --    0.31871   0.33096   0.33609   0.33786   0.34712
 Alpha virt. eigenvalues --    0.35652   0.35969   0.36517   0.37160   0.38041
 Alpha virt. eigenvalues --    0.39603   0.40272   0.40562   0.41225   0.42618
 Alpha virt. eigenvalues --    0.43566   0.43739   0.43911   0.45406   0.46065
 Alpha virt. eigenvalues --    0.46602   0.47169   0.48252   0.49075   0.49399
 Alpha virt. eigenvalues --    0.50485   0.51051   0.51229   0.51488   0.52424
 Alpha virt. eigenvalues --    0.53735   0.54543   0.54957   0.55578   0.56651
 Alpha virt. eigenvalues --    0.57211   0.57307   0.57586   0.57868   0.59041
 Alpha virt. eigenvalues --    0.59339   0.59978   0.60880   0.61137   0.61774
 Alpha virt. eigenvalues --    0.62145   0.62822   0.63433   0.63664   0.64236
 Alpha virt. eigenvalues --    0.65648   0.65868   0.67458   0.68851   0.69172
 Alpha virt. eigenvalues --    0.69997   0.71680   0.76680   0.78277   0.80660
 Alpha virt. eigenvalues --    0.83967   0.85495   0.87896   0.88909   0.89509
 Alpha virt. eigenvalues --    0.91031   0.92095   0.94411   0.95194   0.96069
 Alpha virt. eigenvalues --    0.96864   0.97225   0.98449   0.99742   1.00043
 Alpha virt. eigenvalues --    1.01935   1.02351   1.03885   1.06620   1.07407
 Alpha virt. eigenvalues --    1.08005   1.10138   1.10558   1.12543   1.13208
 Alpha virt. eigenvalues --    1.14256   1.15859   1.16464   1.18379   1.19849
 Alpha virt. eigenvalues --    1.21091   1.21790   1.22866   1.24828   1.25791
 Alpha virt. eigenvalues --    1.26074   1.27710   1.28055   1.30307   1.30646
 Alpha virt. eigenvalues --    1.31143   1.32821   1.33069   1.33746   1.34223
 Alpha virt. eigenvalues --    1.35139   1.35307   1.36151   1.37998   1.39157
 Alpha virt. eigenvalues --    1.40614   1.41979   1.43118   1.43466   1.44190
 Alpha virt. eigenvalues --    1.45021   1.45389   1.45845   1.46217   1.46658
 Alpha virt. eigenvalues --    1.46965   1.47706   1.49109   1.49615   1.50179
 Alpha virt. eigenvalues --    1.51183   1.52189   1.52673   1.54126   1.55341
 Alpha virt. eigenvalues --    1.55569   1.57013   1.57658   1.58543   1.58652
 Alpha virt. eigenvalues --    1.59545   1.60146   1.61099   1.62609   1.63209
 Alpha virt. eigenvalues --    1.64209   1.64908   1.65826   1.66901   1.67512
 Alpha virt. eigenvalues --    1.69749   1.70093   1.71857   1.73532   1.74927
 Alpha virt. eigenvalues --    1.76713   1.76799   1.78195   1.78951   1.80965
 Alpha virt. eigenvalues --    1.82385   1.83273   1.86012   1.88105   1.88949
 Alpha virt. eigenvalues --    1.90611   1.90648   1.92047   1.93570   1.96215
 Alpha virt. eigenvalues --    1.97669   1.98852   2.00449   2.01295   2.02903
 Alpha virt. eigenvalues --    2.03280   2.03451   2.04529   2.05848   2.07126
 Alpha virt. eigenvalues --    2.08919   2.09287   2.10335   2.11604   2.13003
 Alpha virt. eigenvalues --    2.14593   2.16619   2.20493   2.21231   2.21844
 Alpha virt. eigenvalues --    2.25696   2.32050   2.32911   2.33277   2.33855
 Alpha virt. eigenvalues --    2.34072   2.37638   2.38786   2.39312   2.40017
 Alpha virt. eigenvalues --    2.40625   2.41092   2.41804   2.42060   2.43595
 Alpha virt. eigenvalues --    2.43915   2.44347   2.45461   2.45959   2.47011
 Alpha virt. eigenvalues --    2.47839   2.48326   2.48577   2.49149   2.51205
 Alpha virt. eigenvalues --    2.54597   2.56433   2.57779   2.60754   2.61013
 Alpha virt. eigenvalues --    2.62315   2.64426   2.67787   2.69347   2.71729
 Alpha virt. eigenvalues --    2.73270   2.74152   2.75733   2.77501   2.77710
 Alpha virt. eigenvalues --    2.78271   2.79428   2.82423   2.83412   2.86842
 Alpha virt. eigenvalues --    2.88554   2.90594   2.91476   2.93021   2.93852
 Alpha virt. eigenvalues --    2.95096   2.96725   2.97498   2.98140   2.98983
 Alpha virt. eigenvalues --    3.00457   3.02145   3.03375   3.05450   3.05801
 Alpha virt. eigenvalues --    3.06398   3.08625   3.09346   3.10940   3.12924
 Alpha virt. eigenvalues --    3.14740   3.15433   3.16707   3.19353   3.20386
 Alpha virt. eigenvalues --    3.22005   3.26971   3.31185   3.37771   3.38872
 Alpha virt. eigenvalues --    3.48333   3.58482   3.65546   3.66612   3.66798
 Alpha virt. eigenvalues --    3.67190   3.68844   3.70402   3.70960   3.71638
 Alpha virt. eigenvalues --    3.72011   3.76774   3.81642   3.84735   3.88224
 Alpha virt. eigenvalues --    3.93853   3.96774   3.98631   4.00710   4.01928
 Alpha virt. eigenvalues --    4.02550   4.07289   4.07729   4.10096   4.12363
 Alpha virt. eigenvalues --    4.19902   4.24975   4.95552   4.97177   4.99145
 Alpha virt. eigenvalues --    5.02697   5.03870   5.05229   5.13997   5.21145
 Alpha virt. eigenvalues --    5.27533   5.31313   5.32975   5.34274   5.46988
 Alpha virt. eigenvalues --    5.57048   5.60152   5.61048   5.64521   5.80625
 Alpha virt. eigenvalues --   23.68642  23.72889  23.75318  23.78026  23.80467
 Alpha virt. eigenvalues --   23.81754  23.88583  23.89151  23.89532  23.90605
 Alpha virt. eigenvalues --   23.91036  49.89240  49.89946  49.94894  49.96092
 Alpha virt. eigenvalues --   49.97336  50.01043
          Condensed to atoms (all electrons):
               1          2          3          4          5          6
     1  C   12.793019  -6.994611   3.230883  -2.745967  -0.365082   0.681438
     2  C   -6.994611  21.363392 -12.251075   6.091045  -0.888230  -1.212610
     3  C    3.230883 -12.251075  25.377912 -13.761387   4.242706  -2.508991
     4  C   -2.745967   6.091045 -13.761387  22.661776  -8.922080   4.520227
     5  C   -0.365082  -0.888230   4.242706  -8.922080  19.599614  -9.597257
     6  C    0.681438  -1.212610  -2.508991   4.520227  -9.597257  15.996753
     7  O   -0.149660   0.138673   0.007197  -0.003717  -0.061604   0.290687
     8  O    0.028420  -0.033792   0.188028  -0.243263   0.094035  -0.063566
     9  O   -0.014363  -0.033116  -0.116035   0.276718  -0.339494   0.369020
    10  O   -0.373346   0.362570   0.066078  -0.008254   0.014714  -0.015422
    11  H    0.343886  -0.051877   0.070416  -0.036739  -0.006809   0.017622
    12  H    0.296076   0.065026  -0.073565   0.052754   0.010833  -0.014841
    13  H    0.000555   0.157894   0.190874  -0.098376   0.019424   0.027909
    14  H   -0.029087   0.022266   0.302069   0.046090   0.040511  -0.029885
    15  H    0.020611  -0.020022   0.154381   0.335477  -0.146473   0.005883
    16  H    0.002950  -0.011144  -0.017460  -0.056028   0.325935   0.123336
    17  H   -0.021430  -0.012597   0.046573  -0.058952   0.173926   0.187922
    18  O    0.038212  -0.023221   0.029972  -0.073471   0.224086  -0.092825
    19  C    0.146040  -0.383518   0.031740  -0.019162  -0.026001   0.036271
    20  H    0.040153  -0.008060   0.002267  -0.000740   0.000446  -0.000866
    21  H   -0.034684   0.024551  -0.003012   0.000745   0.000858  -0.001658
    22  H    0.005555  -0.024653   0.001845  -0.000907  -0.000697   0.002381
    23  C    0.000981   0.064857  -0.064035   0.136925  -0.268588  -0.116952
    24  H   -0.000651  -0.006394  -0.010114  -0.015563  -0.018880   0.039192
    25  H    0.003559   0.012423   0.035363   0.064814  -0.089740  -0.015001
    26  H   -0.001189  -0.000587  -0.003835  -0.009109   0.054410  -0.009307
    27  C   -0.057076  -0.066176  -0.269652  -0.054413   0.100340   0.031057
    28  H    0.001421  -0.001647   0.065659  -0.025133  -0.039679  -0.003998
    29  H   -0.000798  -0.000959  -0.034576  -0.090017   0.104980   0.010040
    30  H   -0.000074   0.002849  -0.012743   0.067986  -0.014739  -0.000333
    31  C   -0.286077   0.086962   0.354236  -0.899074   1.453038  -1.511104
    32  O   -0.005254   0.123563   0.015561  -0.020620  -0.192907   0.222160
    33  C   -0.092444  -0.325161   0.757331  -0.584530   0.718710  -0.898292
    34  H   -0.000406  -0.003003   0.002547  -0.001927  -0.002895   0.003787
    35  H    0.004907  -0.004209  -0.001418  -0.003085  -0.004695   0.006888
    36  H   -0.002099   0.002866  -0.007833   0.005550   0.005219  -0.008328
               7          8          9         10         11         12
     1  C   -0.149660   0.028420  -0.014363  -0.373346   0.343886   0.296076
     2  C    0.138673  -0.033792  -0.033116   0.362570  -0.051877   0.065026
     3  C    0.007197   0.188028  -0.116035   0.066078   0.070416  -0.073565
     4  C   -0.003717  -0.243263   0.276718  -0.008254  -0.036739   0.052754
     5  C   -0.061604   0.094035  -0.339494   0.014714  -0.006809   0.010833
     6  C    0.290687  -0.063566   0.369020  -0.015422   0.017622  -0.014841
     7  O    7.693816  -0.002150   0.010746   0.022445  -0.010859   0.010462
     8  O   -0.002150   8.022964   0.020175   0.000264  -0.000269   0.000363
     9  O    0.010746   0.020175   7.878188  -0.002002   0.017088  -0.010219
    10  O    0.022445   0.000264  -0.002002   8.107365  -0.037593  -0.045542
    11  H   -0.010859  -0.000269   0.017088  -0.037593   0.532869  -0.049194
    12  H    0.010462   0.000363  -0.010219  -0.045542  -0.049194   0.559365
    13  H   -0.024107  -0.000785   0.011586   0.014539   0.006343  -0.006262
    14  H    0.005195  -0.002654  -0.057680  -0.000505  -0.001144   0.008015
    15  H   -0.001306  -0.039364   0.003985   0.000210   0.000033  -0.000097
    16  H    0.004798  -0.001319   0.003064  -0.000007   0.000012  -0.000006
    17  H   -0.061887  -0.000055  -0.006070   0.000459  -0.000115   0.000056
    18  O    0.016191   0.000469  -0.002024   0.000208   0.000125  -0.000142
    19  C    0.007078   0.000216   0.001871   0.135353   0.006779   0.004609
    20  H   -0.000131   0.000000  -0.000007  -0.057709  -0.000159  -0.000312
    21  H   -0.000237   0.000001  -0.000120  -0.038043  -0.005029   0.012328
    22  H    0.000945  -0.000001   0.000184  -0.042503   0.014000  -0.004179
    23  C    0.003253  -0.012274  -0.000480  -0.000378  -0.000009  -0.000159
    24  H    0.000351   0.001153   0.000000  -0.000000  -0.000000   0.000000
    25  H   -0.000348  -0.003667  -0.000050   0.000002  -0.000000  -0.000000
    26  H   -0.000161   0.000040  -0.000005   0.000003  -0.000000  -0.000000
    27  C    0.002288   0.124193   0.005086  -0.000015   0.000145   0.000359
    28  H    0.000015  -0.043837  -0.000077  -0.000001  -0.000000   0.000000
    29  H   -0.000089  -0.026033  -0.000165   0.000000  -0.000000   0.000000
    30  H    0.000003  -0.072693  -0.000441   0.000000  -0.000000   0.000000
    31  C    0.037426   0.085871   0.287988   0.003060   0.008333   0.002255
    32  O   -0.076018   0.020353  -0.094990  -0.000205   0.001131  -0.000379
    33  C    0.029703  -0.081317  -0.446694   0.001386  -0.015657   0.002815
    34  H    0.000206  -0.001105  -0.001775   0.000001  -0.000008   0.000002
    35  H    0.000037   0.000718  -0.012192  -0.000011   0.000031   0.000010
    36  H   -0.000163   0.000107   0.016321   0.000001   0.000003   0.000001
              13         14         15         16         17         18
     1  C    0.000555  -0.029087   0.020611   0.002950  -0.021430   0.038212
     2  C    0.157894   0.022266  -0.020022  -0.011144  -0.012597  -0.023221
     3  C    0.190874   0.302069   0.154381  -0.017460   0.046573   0.029972
     4  C   -0.098376   0.046090   0.335477  -0.056028  -0.058952  -0.073471
     5  C    0.019424   0.040511  -0.146473   0.325935   0.173926   0.224086
     6  C    0.027909  -0.029885   0.005883   0.123336   0.187922  -0.092825
     7  O   -0.024107   0.005195  -0.001306   0.004798  -0.061887   0.016191
     8  O   -0.000785  -0.002654  -0.039364  -0.001319  -0.000055   0.000469
     9  O    0.011586  -0.057680   0.003985   0.003064  -0.006070  -0.002024
    10  O    0.014539  -0.000505   0.000210  -0.000007   0.000459   0.000208
    11  H    0.006343  -0.001144   0.000033   0.000012  -0.000115   0.000125
    12  H   -0.006262   0.008015  -0.000097  -0.000006   0.000056  -0.000142
    13  H    0.424894  -0.002099   0.000682  -0.000189   0.000176  -0.003643
    14  H   -0.002099   0.423494  -0.007132  -0.000079   0.000152  -0.000622
    15  H    0.000682  -0.007132   0.443206   0.000009  -0.000220   0.000625
    16  H   -0.000189  -0.000079   0.000009   0.450904  -0.006047  -0.040139
    17  H    0.000176   0.000152  -0.000220  -0.006047   0.446095   0.002380
    18  O   -0.003643  -0.000622   0.000625  -0.040139   0.002380   7.885031
    19  C    0.000215   0.000628   0.000081   0.000010  -0.000055   0.000108
    20  H   -0.000109  -0.000003   0.000000   0.000000   0.000001   0.000001
    21  H   -0.000029   0.000043   0.000000  -0.000000   0.000001   0.000002
    22  H    0.000131  -0.000006   0.000000   0.000000  -0.000001   0.000004
    23  C   -0.003539   0.000473   0.004614  -0.001698  -0.001311   0.131817
    24  H   -0.000015  -0.000001   0.000307   0.012311  -0.000339  -0.044113
    25  H   -0.000044   0.000027  -0.000166  -0.004408   0.000099  -0.020603
    26  H   -0.000109   0.000001  -0.000171  -0.000257   0.000024  -0.069586
    27  C    0.001641   0.000473  -0.004281   0.005633   0.000798  -0.004399
    28  H    0.000004  -0.000253   0.012353   0.000420  -0.000005   0.001421
    29  H   -0.000011   0.000107  -0.004465   0.000057   0.000051  -0.003705
    30  H   -0.000005  -0.000019  -0.000224  -0.000198  -0.000002   0.000073
[...]
 823,0.00037113,-0.00112829,-0.00007719,-0.00020202,0.00020982,-0.00014
 491,0.00007691,0.00002534,-0.00023134,0.00017113,0.00013266,0.00144147
 ,0.00165491,-0.00122923,0.00006900,-0.00016589,-0.00004589,-0.00064568
 ,-0.00055006,-0.00005027,-0.00062740,-0.00019078,0.00018132,-0.0012615
 8,-0.00130643,0.00118412,0.00004520,-0.00001501,-0.00025607,0.00100762
 ,0.00003147,-0.00049166,0.00020723,0.00037759,-0.00001326,0.08031734,0
 .14311827,0.74150703,-0.00096587,-0.00005703,-0.00065041,0.00243060,0.
 00443131,0.00831434,-0.00983334,0.00210148,-0.00441045,0.00322705,0.00
 243505,0.00458548,-0.02455754,0.03691376,-0.00566734,-0.05352864,-0.03
 233825,0.01207681,0.01540339,0.01308586,-0.03118446,-0.00114023,-0.004
 13609,-0.00144890,0.03814858,0.00305487,0.01874153,0.00066886,-0.00038
 705,-0.00045034,0.00023579,0.00032987,0.00008308,0.00010907,0.00012087
 ,-0.00062462,-0.00089911,-0.00184477,-0.00080822,0.00173156,-0.0009457
 6,0.00011709,0.00076167,0.00044796,-0.00059580,0.00022815,0.00053152,-
 0.00020129,-0.00883988,0.00842081,-0.00322896,-0.01478311,-0.00591368,
 0.00086241,-0.00051459,-0.00028276,0.00034533,0.00001349,0.00001982,0.
 00000667,0.00004388,-0.00001071,-0.00011842,0.00010048,0.00002921,0.00
 002588,0.00261639,0.00269300,-0.00362763,0.00002394,-0.00022351,0.0003
 5257,-0.00078949,-0.00051018,0.00003923,-0.00113668,-0.00037847,0.0003
 6459,0.00008650,0.00013188,-0.00030178,-0.00017425,-0.00009782,0.00007
 077,0.00023007,0.00005719,-0.00025683,-0.00007971,-0.00010994,0.000002
 90,-0.16904084,0.12194797,0.06403894,0.23915681,0.00155804,-0.00003294
 ,0.00084188,-0.00395344,-0.00991148,-0.01517762,0.01377002,-0.00706124
 ,0.01171810,-0.00210183,-0.00255157,-0.00117970,0.00198896,-0.00719532
 ,-0.00132576,-0.01716811,-0.00675230,-0.03659558,0.00599053,-0.0329645
 8,0.06071292,-0.00282918,0.00155044,-0.00143062,-0.00409363,0.00831337
 ,-0.06096292,-0.00097182,0.00071535,0.00082656,-0.00045022,-0.00042927
 ,-0.00041809,-0.00018105,-0.00023606,0.00107830,0.00148596,0.00291045,
 0.00244481,-0.00149516,0.00133837,-0.00025887,-0.00092382,0.00032758,0
 .00141790,0.00074678,0.00035509,0.00005622,0.03012426,-0.02045091,0.00
 852766,0.00397226,0.00348738,0.00004445,0.00065985,0.00048379,-0.00054
 267,-0.00001642,-0.00003451,-0.00002953,-0.00006691,0.00002194,0.00022
 152,-0.00009943,-0.00005686,-0.00004987,-0.00189610,-0.00057503,0.0012
 0749,0.00001652,0.00004749,-0.00014863,0.00063018,0.00030904,-0.000001
 32,0.00030017,0.00011368,-0.00002653,0.00071184,0.00074331,-0.00135016
 ,-0.00033320,-0.00015574,0.00012096,-0.00024398,-0.00006982,0.00041199
 ,0.00006690,0.00009925,0.00004566,0.13181841,-0.24298360,-0.12851231,-
 0.18793191,0.33804768,0.00003610,-0.00065907,0.00110532,-0.00388992,-0
 .00003398,0.00000683,0.01509366,-0.00371600,0.00774833,-0.00016128,0.0
 0054803,-0.00342682,-0.00838966,-0.00112531,0.00035329,-0.00759097,-0.
 00046798,-0.07925812,-0.01867700,0.03306354,-0.01282982,-0.00073364,0.
 00062406,0.00230993,0.00924622,-0.05138591,-0.07974091,0.00026766,0.00
 129934,-0.00068919,-0.00033759,-0.00022043,-0.00004417,0.00002346,0.00
 000016,0.00032852,0.00015524,0.00072333,-0.00057623,-0.00142863,0.0005
 2346,0.00029114,-0.00032499,0.00017875,0.00138432,-0.00083689,-0.00091
 221,0.00116052,0.01466148,-0.01207015,0.00694584,0.00341518,0.00002838
 ,0.00288886,-0.00051512,-0.00027149,0.00043402,0.00001981,0.00007598,-
 0.00006527,0.00008911,-0.00001572,-0.00005061,0.00010001,-0.00005376,-
 0.00004960,-0.00097933,-0.00014571,0.00063848,-0.00010195,0.00006094,-
 0.00002350,0.00035128,0.00022315,-0.00001310,0.00016321,0.00002682,-0.
 00004412,0.00036731,0.00017897,-0.00054983,-0.00000444,0.00001796,0.00
 011108,-0.00036070,0.00000994,0.00019845,-0.00005077,-0.00009437,-0.00
 001457,0.08060964,-0.14565661,-0.25215235,-0.07967434,0.18342642,0.392
 60062,-0.00021115,-0.00016182,0.00009526,-0.00090300,0.00080580,0.0002
 2966,0.00457463,0.00223882,0.00069909,0.00038109,0.00014368,0.00010493
 ,0.00031218,-0.00039820,0.00019967,0.00646226,-0.00143131,0.00185114,-
 0.00019295,0.00104106,-0.00261259,-0.00010437,-0.00023707,-0.00000602,
 -0.01047833,0.00959207,-0.02016558,0.00015226,0.00016731,-0.00015519,0
 .00001419,-0.00000671,-0.00000703,0.00005415,0.00002808,-0.00002263,0.
 00003864,0.00018730,-0.00008236,0.00030620,-0.00014030,0.00005362,-0.0
 0001299,0.00004976,-0.00010786,-0.00004294,-0.00005449,-0.00000372,-0.
 00070062,0.00030337,-0.00017655,-0.00002050,0.00002812,0.00009216,-0.0
 0013577,-0.00005826,0.00009087,0.00000764,0.00001500,-0.00000755,0.000
 01587,-0.00000606,-0.00001626,0.00003050,-0.00000274,-0.00000516,0.000
 11633,-0.00002003,-0.00000278,-0.00001108,-0.00000223,0.00000803,-0.00
 001557,-0.00000152,0.00000854,0.00000091,0.00000551,-0.00001295,0.0001
 7641,0.00017538,-0.00006506,-0.00002646,-0.00000570,-0.00000316,-0.000
 01336,-0.00000226,0.00000814,-0.00002247,-0.00001501,0.00001353,-0.179
 96647,0.06693248,-0.03645312,-0.01345486,0.02579615,-0.00109829,0.5475
 6822,-0.00014135,0.00017941,-0.00012314,-0.00163088,0.00010417,-0.0013
 3726,0.00014607,0.00622867,-0.00438167,0.00142996,-0.00106144,0.000631
 52,0.00003600,-0.00150304,0.00042985,-0.00117215,0.00914031,-0.0041910
 4,-0.00057262,-0.00050828,0.00157966,-0.00014044,0.00053432,0.00009019
 ,0.00133655,0.00763147,0.00499056,-0.00008411,-0.00023564,0.00026265,0
 .00008960,0.00001600,-0.00005167,0.00002657,-0.00001536,0.00007979,0.0
 0019364,0.00035550,0.00011881,0.00018144,0.00000311,-0.00005398,0.0002
 2522,0.00006166,-0.00035444,-0.00010454,-0.00011061,0.00003415,0.00014
 064,-0.00005352,0.00011878,0.00158112,0.00013922,-0.00001951,0.0001738
 2,0.00008717,-0.00019136,-0.00000361,-0.00002025,0.00001237,-0.0000118
 2,0.00001325,0.00003526,-0.00001733,0.00001079,-0.00000457,-0.00045800
 ,-0.00025868,0.00040722,-0.00000096,0.00003236,-0.00005452,0.00005602,
 0.00006625,-0.00000532,0.00010587,0.00001379,-0.00003556,-0.00025105,-
 0.00019719,0.00011700,0.00003847,-0.00001561,0.00000041,0.00000490,-0.
 00001043,0.00003465,0.00002976,0.00004599,-0.00001798,0.05711252,-0.12
 391615,0.02928337,0.03429748,-0.02577614,-0.00802075,0.01610702,0.5202
 7192,-0.00013014,-0.00014586,0.00023698,-0.00162640,-0.00112893,-0.001
 97905,0.00476269,-0.00130476,-0.00048028,-0.00033538,0.00033228,-0.001
 01977,-0.00035569,-0.00083734,-0.00034185,-0.00418371,0.00202382,-0.00
 528535,-0.00008423,-0.00130114,0.00454371,0.00003556,-0.00013673,0.000
 48481,-0.04094171,0.01987900,-0.02724932,0.00013146,0.00025889,-0.0001
 1564,0.00000503,-0.00000685,-0.00001006,-0.00001449,0.00000793,0.00011
 435,0.00028287,0.00062824,0.00012462,-0.00100810,0.00053397,-0.0003097
 7,-0.00016798,-0.00008376,0.00041227,0.00001423,0.00012615,0.00011035,
 0.00127417,-0.00074238,0.00037167,0.00038111,0.00026956,0.00013579,-0.
 00008686,-0.00000848,0.00006997,0.00001233,0.00001204,-0.00001607,0.00
 000360,-0.00000847,-0.00000389,0.00001771,-0.00000126,-0.00000370,-0.0
 0005445,-0.00006496,0.00004362,-0.00000006,0.00000315,0.00000779,0.000
 05769,0.00003088,0.00000028,0.00003425,0.00001457,-0.00000582,0.000176
 67,0.00010573,-0.00010173,0.00000455,0.00000487,0.00001734,-0.00007457
 ,0.00000879,0.00003142,-0.00002904,-0.00004272,-0.00000558,-0.03608088
 ,0.03115551,-0.09495699,0.02189080,-0.02616251,0.01072677,0.00102419,0
 .04617936,0.60611850,-0.00001471,-0.00005588,0.00002342,0.00016778,-0.
 00014164,0.00021377,-0.00007980,-0.00125689,0.00039259,-0.00027766,0.0
 0085406,-0.00052723,0.00000698,0.00039264,-0.00014229,-0.00057899,-0.0
 0160748,0.00055252,0.00006013,0.00001964,-0.00003814,0.00051114,-0.000
 54156,0.00033869,-0.00180166,-0.00026077,-0.00063423,0.00003115,0.0000
 5798,-0.00005090,-0.00002656,0.00000358,0.00000608,0.00000170,0.000007
 50,-0.00001031,-0.00001104,0.00000238,-0.00002189,-0.00019953,0.000068
 30,-0.00004995,-0.00004954,-0.00011006,0.00019757,0.00000817,0.0000534
 0,0.00003649,0.00002022,-0.00002626,-0.00000452,-0.00034819,-0.0001090
 7,0.00001790,-0.00004938,-0.00001864,0.00003229,0.00000346,0.00000416,
 -0.00000326,0.00000510,-0.00000109,-0.00000509,0.00000959,-0.00000083,
 0.00000008,0.00008941,0.00006279,-0.00008973,0.00000001,-0.00000065,0.
 00001585,-0.00002105,-0.00001481,-0.00001322,-0.00002583,-0.00000922,0
 .00000911,-0.00016269,-0.00007347,0.00006156,0.00006569,-0.00000172,0.
 00002592,0.00002418,-0.00000426,-0.00003749,-0.00009020,-0.00008349,-0
 .00000027,0.01389353,0.02405302,-0.00796485,-0.00356951,0.00138190,0.0
 0176510,-0.08357059,-0.09248052,0.02496316,0.08897373,-0.00001025,-0.0
 0006858,0.00007492,-0.00016423,0.00010516,-0.00000135,0.00091302,-0.00
 000300,0.00040026,0.00003945,-0.00014139,0.00006235,0.00011516,-0.0003
 2553,0.00005868,0.00127281,0.00012860,-0.00003896,-0.00017431,0.000242
 73,-0.00032916,-0.00044654,-0.00013623,-0.00017891,-0.00049346,0.00092
 263,-0.00307140,0.00004614,0.00009926,-0.00008497,-0.00001834,-0.00000
 309,-0.00000034,0.00000199,0.00000607,-0.00000276,0.00001524,0.0000437
 8,-0.00000107,0.00002301,0.00000335,0.00000017,-0.00006698,0.00005978,
 -0.00001008,0.00001313,-0.00000319,-0.00001929,-0.00007915,0.00001153,
 -0.00001267,-0.00002206,0.00010074,0.00000166,-0.00005732,-0.00002521,
 0.00005678,0.00000276,0.00000724,-0.00000469,0.00000523,-0.00000464,-0
 .00000920,0.00000942,-0.00000299,-0.00000215,0.00006947,-0.00000350,0.
 00000358,-0.00000318,-0.00000369,0.00000357,0.00000476,-0.00000124,0.0
 0000386,0.00000164,0.00000659,-0.00000430,0.00020666,0.00029569,-0.000
 16373,-0.00007151,-0.00002619,0.00000365,-0.00002510,-0.00003101,0.000
 02809,-0.00002260,-0.00000316,0.00003311,-0.00541610,-0.02347044,0.007
 10039,0.00092527,0.00143949,0.00105569,-0.09610113,-0.25133833,0.06501
 936,0.10019152,0.27518168,0.00004082,0.00000149,0.00003068,0.00016333,
 -0.00008959,0.00004572,-0.00039105,-0.00091171,0.00031034,-0.00017892,
 0.00031571,-0.00031815,-0.00004158,-0.00011842,0.00010226,0.00004040,0
 .00019261,-0.00014279,-0.00002688,0.00000631,0.00003775,0.00028838,-0.
 00018826,-0.00011719,-0.00202208,-0.00007112,-0.00072592,-0.00000579,0
 .00001288,-0.00002088,-0.00001296,-0.00001329,0.00001050,-0.00001095,0
 .00000080,-0.00000742,-0.00000406,-0.00002277,0.00000297,-0.00014352,0
 .00008098,-0.00004485,-0.00003497,-0.00003622,0.00010343,0.00002126,0.
 00000842,0.00000002,0.00000465,-0.00001320,0.00001754,0.00006005,-0.00
 000608,-0.00003470,-0.00000462,0.00000111,0.00001387,0.00000016,0.0000
 0031,-0.00000171,-0.00000052,0.00000025,-0.00000320,0.00000016,-0.0000
 0141,-0.00000003,-0.00000966,-0.00000530,0.00002360,0.00000182,-0.0000
 0097,-0.00000457,0.00000191,0.00000030,-0.00000320,0.00000355,0.000001
 06,-0.00000228,-0.00009996,-0.00014615,0.00011967,0.00002170,0.0000336
 1,-0.00002226,0.00006141,-0.00002167,-0.00002381,-0.00001328,0.0000265
 7,0.00006293,0.00569750,0.00968131,-0.00584729,0.00100094,-0.00096854,
 -0.00010650,0.02535172,0.06553803,-0.05735263,-0.02908959,-0.07145552,
 0.06203298,-0.00005364,0.00005773,-0.00002917,0.00016773,0.00026803,0.
 00036425,-0.00027407,0.00029723,-0.00036840,0.00012400,-0.00001375,0.0
 0020491,0.00006580,0.00013706,0.00002771,0.00133917,-0.00089234,0.0012
 7923,-0.00000178,0.00029363,-0.00100631,0.00000789,-0.00005653,-0.0001
 3906,0.00220787,0.00010614,-0.00058195,-0.00000271,-0.00010771,0.00003
 273,0.00002948,0.00003541,0.00000113,0.00000730,-0.00000167,-0.0000354
 2,-0.00003927,-0.00009673,-0.00002554,0.00007456,-0.00004871,0.0000140
 9,0.00003350,0.00002663,-0.00006886,0.00000092,-0.00001177,-0.00002845
 ,-0.00029472,0.00015459,-0.00010592,-0.00010287,-0.00005204,-0.0000166
 7,0.00004105,0.00001256,-0.00002688,-0.00000231,-0.00000416,0.00000380
 ,-0.00000277,0.00000161,0.00000030,-0.00000684,0.00000289,0.00000003,0
 .00002770,0.00002249,-0.00001784,-0.00000005,-0.00000131,0.00000051,-0
 .00001318,-0.00000932,-0.00000110,-0.00000900,-0.00000296,0.00000180,-
 0.00000866,0.00001240,-0.00000653,-0.00001513,-0.00000309,0.00000273,0
 .00000988,-0.00000553,-0.00000999,-0.00000146,0.00000178,0.00000892,-0
 .01607579,-0.00054227,0.02144686,-0.00334958,0.00418433,-0.00173964,-0
 .16239641,0.03190991,0.12992020,-0.00744999,0.00249619,0.00775991,0.17
 315903,0.00025104,-0.00008282,0.00011543,-0.00004368,-0.00017825,-0.00
 028098,0.00027830,-0.00052135,0.00051612,-0.00018997,0.00004576,-0.000
 18846,-0.00004184,-0.00030764,-0.00004008,-0.00025863,0.00084106,-0.00
 112695,-0.00024507,-0.00024879,0.00090360,-0.00012453,-0.00005611,-0.0
 0005073,-0.00219593,0.00029842,-0.00173211,-0.00008132,0.00012900,-0.0
 0007388,-0.00007575,-0.00003571,0.00000197,-0.00004337,-0.00000765,0.0
 0000334,0.00001609,0.00005456,0.00002798,-0.00009168,0.00007412,-0.000
 02872,-0.00006727,0.00001092,0.00008693,0.00002301,0.00001801,0.000003
 32,0.00021067,-0.00012787,0.00006077,0.00009612,0.00006854,0.00001785,
 0.00000927,-0.00001255,0.00006526,-0.00000538,0.00000631,-0.00000488,-
 0.00000289,-0.00000667,-0.00000808,-0.00001034,-0.00000894,-0.00000609
 ,0.00001511,-0.00000557,0.00001508,-0.00000174,-0.00000185,0.00000197,
 0.00001312,0.00000360,-0.00000048,0.00000924,0.00000592,-0.00000191,0.
 00008801,0.00006430,-0.00004808,-0.00002563,0.00000741,-0.00000436,-0.
 00000495,-0.00001064,0.00000705,0.00000291,0.00000765,0.00002540,0.015
 05189,-0.00698187,-0.01603387,0.00401874,-0.00350367,0.00218044,0.0294
 7724,-0.04510614,-0.03489665,-0.01891220,0.00588319,0.02090636,-0.0360
 0428,0.05250718,-0.00008586,0.00000294,0.00002931,0.00005472,0.0001017
 9,0.00019168,0.00025725,-0.00035725,0.00068654,-0.00011813,0.00014281,
 -0.00012025,0.00014517,0.00000519,-0.00001726,0.00081594,-0.00009589,0
 .00081285,0.00002805,0.00011882,-0.00060245,-0.00002768,-0.00010599,-0
 .00000041,-0.00110261,0.00091332,-0.00205693,0.00007166,-0.00000992,-0
 .00005106,0.00002170,0.00002985,0.00003638,-0.00000965,0.00000538,-0.0
 0002998,-0.00000354,-0.00001427,-0.00003071,0.00000893,-0.00003646,0.0
 0000893,-0.00004464,-0.00000658,0.00004124,-0.00000987,0.00001123,-0.0
 0000888,-0.00021183,0.00013196,-0.00007421,-0.00013863,0.00000211,0.00
 000896,-0.00003617,-0.00000967,0.00002682,0.00000555,0.00000121,-0.000
 00291,-0.00000269,-0.00000132,-0.00001109,0.00000726,0.00000580,0.0000
 0617,0.00005789,0.00001315,-0.00003807,-0.00000151,-0.00000197,0.00000
 661,-0.00000719,-0.00000540,0.00000298,-0.00000928,0.00000021,0.000002
 13,0.00005496,0.00006225,-0.00005046,-0.00001545,-0.00000421,0.0000063
 3,-0.00001394,0.00000116,-0.00000051,-0.00000676,-0.00001288,-0.000001
 06,-0.00737925,-0.00152961,0.01044169,-0.00214562,0.00374435,0.0000702
 9,0.13501825,-0.03628046,-0.20843461,0.00445200,-0.00236911,-0.0064108
 3,-0.14540214,0.03669302,0.21879200,-0.00003231,-0.00002423,0.00006812
 ,-0.00049123,-0.00014799,-0.00041750,0.00135235,0.00042190,-0.00027536
 ,0.00012203,-0.00002024,-0.00012718,-0.00000074,-0.00025194,-0.0000761
 1,-0.00021661,0.00102125,-0.00052155,-0.00001991,-0.00020007,0.0006526
 9,-0.00007476,-0.00003148,0.00013713,-0.00385781,0.00300693,-0.0031665
 9,0.00002200,0.00004008,-0.00002424,-0.00000031,0.00000793,-0.00000064
 ,-0.00000567,0.00000266,0.00001191,0.00007556,0.00015292,0.00002888,-0
 .00015373,0.00009309,-0.00005444,-0.00001927,-0.00000129,0.00003962,-0
 .00002917,0.00001611,0.00002510,0.00003032,0.00001603,0.00001459,0.000
 13238,0.00004772,0.00006086,-0.00000345,0.00000269,0.00001189,0.000002
 63,0.00000166,-0.00000306,-0.00000094,-0.00000124,-0.00000196,0.000002
 40,0.00000116,-0.00000157,-0.00001425,-0.00002461,0.00000621,-0.000002
 68,0.00000265,0.00000399,0.00000997,0.00000807,-0.00000004,0.00001056,
 0.00000267,-0.00000121,0.00005993,0.00006703,-0.00006417,-0.00001596,-
 0.00000816,0.00001560,-0.00003420,0.00000240,0.00001143,-0.00000629,-0
 .00001668,-0.00000415,-0.01067329,-0.01528071,-0.01765685,0.00144096,-
 0.00044685,0.00053070,-0.10793158,-0.04815317,-0.09981854,-0.00554503,
 -0.00318064,-0.00842930,0.01280435,0.00886566,0.01577310,0.11306375,0.
 00008055,0.00001944,-0.00003591,0.00037403,0.00013304,0.00030481,-0.00
 049806,-0.00018477,0.00051537,-0.00007161,-0.00011208,0.00018514,-0.00
 002320,0.00014557,-0.00004170,0.00011773,-0.00040841,0.00036484,-0.000
 07727,-0.00000848,-0.00032022,-0.00005896,0.00009771,-0.00006263,0.005
 25171,-0.00215191,0.00291203,-0.00005409,-0.00004665,0.00001511,-0.000
 02074,0.00000935,0.00000433,-0.00001067,-0.00000639,-0.00002224,-0.000
 05485,-0.00011941,-0.00001158,0.00019039,-0.00011115,0.00008051,0.0000
 2455,0.00002173,-0.00006079,0.00000153,-0.00000855,-0.00001585,0.00001
 697,0.00000582,-0.00002501,-0.00008350,-0.00003331,-0.00001165,0.00003
 645,0.00000229,-0.00000376,-0.00000278,-0.00000223,0.00000475,-0.00000
 526,-0.00000147,-0.00000170,-0.00001186,0.00000200,0.00000275,0.000015
 13,0.00001941,-0.00001880,0.00000050,0.00000052,0.00000047,-0.00000692
 ,-0.00000814,-0.00000202,-0.00000531,-0.00000065,0.00000310,0.00001512
 ,0.00001436,-0.00002273,-0.00000644,-0.00000488,0.00000332,-0.00000945
 ,0.00001103,-0.00000015,0.00001835,0.00000158,-0.00002201,0.00973341,0
 .00843568,0.01829264,-0.00082600,0.00043732,0.00060406,-0.05444933,-0.
 09480855,-0.09972128,-0.01144236,-0.00894608,-0.02273789,-0.00216644,-
 0.00282187,-0.00114555,0.05400869,0.10042813,-0.00005390,0.00002219,-0
 .00000780,-0.00015744,-0.00005071,-0.00020181,0.00033905,-0.00018428,0
 .00017446,-0.00004805,0.00002221,-0.00013015,-0.00001773,-0.00022955,0
 .00006906,-0.00019450,0.00109524,-0.00031388,0.00001218,-0.00010268,0.
 00030030,0.00008770,0.00003249,0.00002792,-0.00288709,0.00056762,0.000
 55455,0.00001946,-0.00000507,0.00002802,0.00002106,-0.00001767,-0.0000
 1041,0.00001492,-0.00000061,0.00002454,0.00005151,0.00004208,0.0000169
 3,-0.00006952,0.00004282,-0.00003194,-0.00001196,-0.00001714,0.0000435
 8,0.00000163,0.00000086,0.00001067,0.00000264,-0.00001119,0.00002613,0
 .00021869,0.00002519,-0.00001373,-0.00000886,0.00000758,-0.00002440,0.
 00000201,-0.00000164,0.00000007,0.00000259,0.00000240,0.00000630,0.000
 00590,0.00000061,-0.00000105,-0.00006125,-0.00003674,0.00005642,0.0000
 0166,0.00000545,-0.00000794,0.00001056,0.00001046,-0.00000183,0.000014
 32,0.00000227,-0.00000438,-0.00005562,-0.00005238,0.00004513,0.0000162
 8,0.00000640,-0.00000445,0.00001245,-0.00000429,-0.00000109,-0.0000063
 9,0.00000494,0.00000632,-0.00326569,-0.00238867,-0.01005629,0.00247606
 ,-0.00170594,0.00033214,-0.10384496,-0.09482043,-0.22587816,0.00557884
 ,0.00385352,0.00827594,-0.01145923,-0.00710558,-0.01322922,0.11325265,
 0.10099022,0.23992003\\0.00000058,0.00000204,0.00000538,-0.00000783,-0
 .00000237,-0.00000738,-0.00000030,-0.00000261,0.00000393,-0.00000213,0
 .00001623,-0.00000595,0.00000905,-0.00001193,-0.00000879,-0.00002380,0
 .00000134,0.00000046,0.00000866,-0.00000216,0.00000002,0.00001235,-0.0
 0000477,-0.00000141,-0.00000280,0.00000719,0.00000893,-0.00000693,0.00
 000170,0.00001148,-0.00000393,0.00000447,0.00000203,-0.00000107,0.0000
 0637,0.00000344,0.00000079,0.00000056,0.00000376,0.00000249,0.00000354
 ,0.00000003,0.00000353,-0.00000401,0.00000056,0.00000064,-0.00000188,-
 0.00000153,0.00000037,-0.00000599,0.,0.00001369,0.00000549,0.00000340,
 0.00000832,0.00000977,-0.00001157,-0.00000324,0.00000306,0.00000679,-0
 .00000477,0.00000753,0.00000748,-0.00000742,0.00000551,0.00000374,-0.0
 0002090,-0.00001337,0.00000929,0.00000259,-0.00000311,-0.00000359,0.00
 000337,-0.00000049,0.00000089,0.00000296,-0.00000652,0.00000055,-0.000
 01083,-0.00000775,-0.00000002,0.00000624,-0.00000181,-0.00000213,0.000
 00479,-0.00000575,-0.00000470,0.00000369,-0.00000029,-0.00000582,-0.00
 000936,0.00000616,-0.00000295,0.00001457,-0.00000919,-0.00000586,0.000
 00253,0.00000009,-0.00000278,0.00000252,0.00000173,-0.00000382,0.00000
 085,0.00000232,-0.00000074,0.00000069,-0.00000112,-0.00000311\\\@


 What some people mistake for the high cost
 of living is really the cost of living high.
                              -- Doug Larson
 Job cpu time:       0 days  5 hours 19 minutes 11.6 seconds.
 File lengths (MBytes):  RWF=    766 Int=      0 D2E=      0 Chk=     19 Scr=      1
 Normal termination of Gaussian 09 at Tue Oct 24 14:40:29 2017.
