 Entering Gaussian System, Link 0=g09
 Initial command:
 /share/apps//g09/l1.exe "/scratch/Gau-16193.inp" -scrdir="/scratch/"
 Entering Link 1 = /share/apps//g09/l1.exe PID=     16194.
  
 Copyright (c) 1988,1990,1992,1993,1995,1998,2003,2009,2013,
            Gaussian, Inc.  All Rights Reserved.
  
 This is part of the Gaussian(R) 09 program.  It is based on
 the Gaussian(R) 03 system (copyright 2003, Gaussian, Inc.),
 the Gaussian(R) 98 system (copyright 1998, Gaussian, Inc.),
 the Gaussian(R) 94 system (copyright 1995, Gaussian, Inc.),
 the Gaussian 92(TM) system (copyright 1992, Gaussian, Inc.),
 the Gaussian 90(TM) system (copyright 1990, Gaussian, Inc.),
 the Gaussian 88(TM) system (copyright 1988, Gaussian, Inc.),
 the Gaussian 86(TM) system (copyright 1986, Carnegie Mellon
 University), and the Gaussian 82(TM) system (copyright 1983,
 Carnegie Mellon University). Gaussian is a federally registered
 trademark of Gaussian, Inc.
  
 This software contains proprietary and confidential information,
 including trade secrets, belonging to Gaussian, Inc.
  
 This software is provided under written license and may be
 used, copied, transmitted, or stored only in accord with that
 written license.
  
 The following legend is applicable only to US Government
 contracts under FAR:
  
                    RESTRICTED RIGHTS LEGEND
  
 Use, reproduction and disclosure by the US Government is
 subject to restrictions as set forth in subparagraphs (a)
 and (c) of the Commercial Computer Software - Restricted
 Rights clause in FAR 52.227-19.
  
 Gaussian, Inc.
 340 Quinnipiac St., Bldg. 40, Wallingford CT 06492
  
  
 ---------------------------------------------------------------
 Warning -- This program may not be used in any manner that
 competes with the business of Gaussian, Inc. or will provide
 assistance to any competitor of Gaussian, Inc.  The licensee
 of this program is prohibited from giving any competitor of
 Gaussian, Inc. access to this program.  By using this program,
 the user acknowledges that Gaussian, Inc. is engaged in the
 business of creating and licensing software in the field of
 computational chemistry and represents and warrants to the
 licensee that it is not a competitor of Gaussian, Inc. and that
 it will not use this program in any manner prohibited above.
 ---------------------------------------------------------------
  

 Cite this work as:
 Gaussian 09, Revision D.01,
 M. J. Frisch, G. W. Trucks, H. B. Schlegel, G. E. Scuseria, 
 M. A. Robb, J. R. Cheeseman, G. Scalmani, V. Barone, B. Mennucci, 
 G. A. Petersson, H. Nakatsuji, M. Caricato, X. Li, H. P. Hratchian, 
 A. F. Izmaylov, J. Bloino, G. Zheng, J. L. Sonnenberg, M. Hada, 
 M. Ehara, K. Toyota, R. Fukuda, J. Hasegawa, M. Ishida, T. Nakajima, 
 Y. Honda, O. Kitao, H. Nakai, T. Vreven, J. A. Montgomery, Jr., 
 J. E. Peralta, F. Ogliaro, M. Bearpark, J. J. Heyd, E. Brothers, 
 K. N. Kudin, V. N. Staroverov, T. Keith, R. Kobayashi, J. Normand, 
 K. Raghavachari, A. Rendell, J. C. Burant, S. S. Iyengar, J. Tomasi, 
 M. Cossi, N. Rega, J. M. Millam, M. Klene, J. E. Knox, J. B. Cross, 
 V. Bakken, C. Adamo, J. Jaramillo, R. Gomperts, R. E. Stratmann, 
 O. Yazyev, A. J. Austin, R. Cammi, C. Pomelli, J. W. Ochterski, 
 R. L. Martin, K. Morokuma, V. G. Zakrzewski, G. A. Voth, 
 P. Salvador, J. J. Dannenberg, S. Dapprich, A. D. Daniels, 
 O. Farkas, J. B. Foresman, J. V. Ortiz, J. Cioslowski, 
 and D. J. Fox, Gaussian, Inc., Wallingford CT, 2013.
 
 ******************************************
 Gaussian 09:  EM64L-G09RevD.01 24-Apr-2013
                 9-Jan-2017 
 ******************************************
 %nproc=20
 Will use up to   20 processors via shared memory.
 %mem=100GB
 %chk=Ac-4_cGalMe.chk
 -------------------------------------------------------------------
 #P PBE1PBE/6-311+G(d,p) opt optcyc=999 freq EmpiricalDispersion=GD3
 -------------------------------------------------------------------
 1/6=999,14=-1,18=20,19=15,26=3,38=1/1,3;
 2/9=110,12=2,17=6,18=5,40=1/2;
 3/5=4,6=6,7=111,11=2,16=1,25=1,30=1,71=1,74=-13,124=31/1,2,3;
 4//1;
 5/5=2,38=5/2;
 6/7=2,8=2,9=2,10=2,28=1/1;
 7//1,2,3,16;
 1/6=999,14=-1,18=20,19=15,26=3/3(2);
 2/9=110/2;
 99//99;
 2/9=110/2;
 3/5=4,6=6,7=111,11=2,16=1,25=1,30=1,71=1,74=-13,124=31/1,2,3;
 4/5=5,16=3,69=1/1;
 5/5=2,38=5/2;
 7//1,2,3,16;
 1/6=999,14=-1,18=20,19=15,26=3/3(-5);
 2/9=110/2;
 6/7=2,8=2,9=2,10=2,19=2,28=1/1;
 99/9=1/99;
 Leave Link    1 at Mon Jan  9 20:37:16 2017, MaxMem= 13421772800 cpu:         2.7
 (Enter /share/apps//g09/l101.exe)
 -------
 disacch
 -------
 Symbolic Z-matrix:
 Charge =  1 Multiplicity = 1
 C                    -1.30776   0.11619   2.60061 
 C                    -0.024    -0.69013   2.87781 
 C                     1.28603   0.068     2.64022 
 C                     1.36751   0.67119   1.21527 
 C                     0.8068   -0.34205   0.17763 
 C                    -0.34879  -1.19031   0.7217 
 O                    -0.1311   -1.78016   1.91792 
 O                     0.63528   1.89481   1.16283 
 O                     1.33379   1.04945   3.68517 
 O                    -1.60082  -0.22836   1.17791 
 H                    -1.15874   1.19809   2.68091 
 H                    -2.16819  -0.23859   3.17693 
 H                    -0.03632  -1.14102   3.87655 
 H                     2.11737  -0.64616   2.75056 
 H                     2.42729   0.84706   0.98044 
 H                     0.46809   0.21877  -0.71367 
 H                    -0.78421  -1.8926    0.00093 
 O                     1.74567  -1.34584  -0.16661 
 C                    -2.16219   0.82164   0.30944 
 H                    -2.28906   0.35867  -0.67391 
 H                    -3.14027   1.07444   0.73135 
 H                    -1.4807    1.67793   0.28558 
 C                     2.55457  -1.02127  -1.31211 
 H                     1.9304   -0.89419  -2.21136 
 H                     3.15008  -0.11036  -1.13944 
 H                     3.23043  -1.87073  -1.45277 
 C                     1.34271   2.95681   0.49715 
 H                     2.30734   3.15047   0.99047 
 H                     1.51487   2.72578  -0.56775 
 H                     0.70826   3.84702   0.57295 
 C                     2.56069   1.67582   3.86404 
 O                     3.51046   1.44428   3.14807 
 C                     2.51238   2.61232   5.03256 
 H                     2.58025   2.0282    5.96172 
 H                     1.56814   3.16823   5.05846 
 H                     3.36484   3.29568   4.98475 
 
 NAtoms=     36 NQM=       36 NQMF=       0 NMMI=      0 NMMIF=      0
                NMic=       0 NMicF=      0.
                    Isotopes and Nuclear Properties:
 (Nuclear quadrupole moments (NQMom) in fm**2, nuclear magnetic moments (NMagM)
  in nuclear magnetons)

  Atom         1           2           3           4           5           6           7           8           9          10
 IAtWgt=          12          12          12          12          12          12          16          16          16          16
 AtmWgt=  12.0000000  12.0000000  12.0000000  12.0000000  12.0000000  12.0000000  15.9949146  15.9949146  15.9949146  15.9949146
 NucSpn=           0           0           0           0           0           0           0           0           0           0
 AtZEff=   0.0000000   0.0000000   0.0000000   0.0000000   0.0000000   0.0000000   0.0000000   0.0000000   0.0000000   0.0000000
 NQMom=    0.0000000   0.0000000   0.0000000   0.0000000   0.0000000   0.0000000   0.0000000   0.0000000   0.0000000   0.0000000
 NMagM=    0.0000000   0.0000000   0.0000000   0.0000000   0.0000000   0.0000000   0.0000000   0.0000000   0.0000000   0.0000000
 AtZNuc=   6.0000000   6.0000000   6.0000000   6.0000000   6.0000000   6.0000000   8.0000000   8.0000000   8.0000000   8.0000000

  Atom        11          12          13          14          15          16          17          18          19          20
 IAtWgt=           1           1           1           1           1           1           1          16          12           1
 AtmWgt=   1.0078250   1.0078250   1.0078250   1.0078250   1.0078250   1.0078250   1.0078250  15.9949146  12.0000000   1.0078250
 NucSpn=           1           1           1           1           1           1           1           0           0           1
 AtZEff=   0.0000000   0.0000000   0.0000000   0.0000000   0.0000000   0.0000000   0.0000000   0.0000000   0.0000000   0.0000000
 NQMom=    0.0000000   0.0000000   0.0000000   0.0000000   0.0000000   0.0000000   0.0000000   0.0000000   0.0000000   0.0000000
 NMagM=    2.7928460   2.7928460   2.7928460   2.7928460   2.7928460   2.7928460   2.7928460   0.0000000   0.0000000   2.7928460
 AtZNuc=   1.0000000   1.0000000   1.0000000   1.0000000   1.0000000   1.0000000   1.0000000   8.0000000   6.0000000   1.0000000

  Atom        21          22          23          24          25          26          27          28          29          30
 IAtWgt=           1           1          12           1           1           1          12           1           1           1
 AtmWgt=   1.0078250   1.0078250  12.0000000   1.0078250   1.0078250   1.0078250  12.0000000   1.0078250   1.0078250   1.0078250
 NucSpn=           1           1           0           1           1           1           0           1           1           1
 AtZEff=   0.0000000   0.0000000   0.0000000   0.0000000   0.0000000   0.0000000   0.0000000   0.0000000   0.0000000   0.0000000
 NQMom=    0.0000000   0.0000000   0.0000000   0.0000000   0.0000000   0.0000000   0.0000000   0.0000000   0.0000000   0.0000000
 NMagM=    2.7928460   2.7928460   0.0000000   2.7928460   2.7928460   2.7928460   0.0000000   2.7928460   2.7928460   2.7928460
 AtZNuc=   1.0000000   1.0000000   6.0000000   1.0000000   1.0000000   1.0000000   6.0000000   1.0000000   1.0000000   1.0000000

  Atom        31          32          33          34          35          36
 IAtWgt=          12          16          12           1           1           1
 AtmWgt=  12.0000000  15.9949146  12.0000000   1.0078250   1.0078250   1.0078250
 NucSpn=           0           0           0           1           1           1
 AtZEff=   0.0000000   0.0000000   0.0000000   0.0000000   0.0000000   0.0000000
 NQMom=    0.0000000   0.0000000   0.0000000   0.0000000   0.0000000   0.0000000
 NMagM=    0.0000000   0.0000000   0.0000000   2.7928460   2.7928460   2.7928460
 AtZNuc=   6.0000000   8.0000000   6.0000000   1.0000000   1.0000000   1.0000000
 Leave Link  101 at Mon Jan  9 20:37:16 2017, MaxMem= 13421772800 cpu:         5.0
 (Enter /share/apps//g09/l103.exe)

 GradGradGradGradGradGradGradGradGradGradGradGradGradGradGradGradGradGrad
 Berny optimization.
 Initialization pass.
                           ----------------------------
                           !    Initial Parameters    !
                           ! (Angstroms and Degrees)  !
 --------------------------                            --------------------------
 ! Name  Definition              Value          Derivative Info.                !
 --------------------------------------------------------------------------------
 ! R1    R(1,2)                  1.5411         estimate D2E/DX2                !
 ! R2    R(1,10)                 1.4929         estimate D2E/DX2                !
 ! R3    R(1,11)                 1.0951         estimate D2E/DX2                !
 ! R4    R(1,12)                 1.0947         estimate D2E/DX2                !
 ! R5    R(2,3)                  1.5321         estimate D2E/DX2                !
 ! R6    R(2,7)                  1.4564         estimate D2E/DX2                !
 ! R7    R(2,13)                 1.0959         estimate D2E/DX2                !
 ! R8    R(3,4)                  1.5495         estimate D2E/DX2                !
 ! R9    R(3,9)                  1.4344         estimate D2E/DX2                !
 ! R10   R(3,14)                 1.1015         estimate D2E/DX2                !
 ! R11   R(4,5)                  1.5549         estimate D2E/DX2                !
 ! R12   R(4,8)                  1.4269         estimate D2E/DX2                !
 ! R13   R(4,15)                 1.0996         estimate D2E/DX2                !
 ! R14   R(5,6)                  1.5333         estimate D2E/DX2                !
 ! R15   R(5,16)                 1.1062         estimate D2E/DX2                !
 ! R16   R(5,18)                 1.4169         estimate D2E/DX2                !
 ! R17   R(6,7)                  1.3514         estimate D2E/DX2                !
 ! R18   R(6,10)                 1.6435         estimate D2E/DX2                !
 ! R19   R(6,17)                 1.0965         estimate D2E/DX2                !
 ! R20   R(8,27)                 1.4392         estimate D2E/DX2                !
 ! R21   R(9,31)                 1.3891         estimate D2E/DX2                !
 ! R22   R(10,19)                1.4737         estimate D2E/DX2                !
 ! R23   R(18,23)                1.4394         estimate D2E/DX2                !
 ! R24   R(19,20)                1.0943         estimate D2E/DX2                !
 ! R25   R(19,21)                1.0948         estimate D2E/DX2                !
 ! R26   R(19,22)                1.0946         estimate D2E/DX2                !
 ! R27   R(23,24)                1.102          estimate D2E/DX2                !
 ! R28   R(23,25)                1.1019         estimate D2E/DX2                !
 ! R29   R(23,26)                1.0946         estimate D2E/DX2                !
 ! R30   R(27,28)                1.1006         estimate D2E/DX2                !
 ! R31   R(27,29)                1.1032         estimate D2E/DX2                !
 ! R32   R(27,30)                1.0958         estimate D2E/DX2                !
 ! R33   R(31,32)                1.2117         estimate D2E/DX2                !
 ! R34   R(31,33)                1.4983         estimate D2E/DX2                !
 ! R35   R(33,34)                1.0996         estimate D2E/DX2                !
 ! R36   R(33,35)                1.096          estimate D2E/DX2                !
 ! R37   R(33,36)                1.0936         estimate D2E/DX2                !
 ! A1    A(2,1,10)             102.3677         estimate D2E/DX2                !
 ! A2    A(2,1,11)             112.9774         estimate D2E/DX2                !
 ! A3    A(2,1,12)             112.9846         estimate D2E/DX2                !
 ! A4    A(10,1,11)            108.9425         estimate D2E/DX2                !
 ! A5    A(10,1,12)            105.8205         estimate D2E/DX2                !
 ! A6    A(11,1,12)            112.8644         estimate D2E/DX2                !
 ! A7    A(1,2,3)              115.1805         estimate D2E/DX2                !
 ! A8    A(1,2,7)              102.227          estimate D2E/DX2                !
 ! A9    A(1,2,13)             111.7053         estimate D2E/DX2                !
 ! A10   A(3,2,7)              109.331          estimate D2E/DX2                !
 ! A11   A(3,2,13)             110.7648         estimate D2E/DX2                !
 ! A12   A(7,2,13)             106.9719         estimate D2E/DX2                !
 ! A13   A(2,3,4)              112.3458         estimate D2E/DX2                !
 ! A14   A(2,3,9)              104.7187         estimate D2E/DX2                !
 ! A15   A(2,3,14)             107.9974         estimate D2E/DX2                !
 ! A16   A(4,3,9)              113.693          estimate D2E/DX2                !
 ! A17   A(4,3,14)             107.7474         estimate D2E/DX2                !
 ! A18   A(9,3,14)             110.2132         estimate D2E/DX2                !
 ! A19   A(3,4,5)              109.9413         estimate D2E/DX2                !
 ! A20   A(3,4,8)              109.9149         estimate D2E/DX2                !
 ! A21   A(3,4,15)             108.0185         estimate D2E/DX2                !
 ! A22   A(5,4,8)              110.4397         estimate D2E/DX2                !
 ! A23   A(5,4,15)             108.0137         estimate D2E/DX2                !
 ! A24   A(8,4,15)             110.46           estimate D2E/DX2                !
 ! A25   A(4,5,6)              113.2965         estimate D2E/DX2                !
 ! A26   A(4,5,16)             108.5263         estimate D2E/DX2                !
 ! A27   A(4,5,18)             112.6335         estimate D2E/DX2                !
 ! A28   A(6,5,16)             109.6101         estimate D2E/DX2                !
 ! A29   A(6,5,18)             101.1676         estimate D2E/DX2                !
 ! A30   A(16,5,18)            111.488          estimate D2E/DX2                !
 ! A31   A(5,6,7)              115.7321         estimate D2E/DX2                !
 ! A32   A(5,6,10)             110.4166         estimate D2E/DX2                !
 ! A33   A(5,6,17)             114.8579         estimate D2E/DX2                !
 ! A34   A(7,6,10)              97.6128         estimate D2E/DX2                !
 ! A35   A(7,6,17)             111.4858         estimate D2E/DX2                !
 ! A36   A(10,6,17)            104.7637         estimate D2E/DX2                !
 ! A37   A(2,7,6)              105.5798         estimate D2E/DX2                !
 ! A38   A(4,8,27)             113.4231         estimate D2E/DX2                !
 ! A39   A(3,9,31)             115.5784         estimate D2E/DX2                !
 ! A40   A(1,10,6)             104.4821         estimate D2E/DX2                !
 ! A41   A(1,10,19)            118.1603         estimate D2E/DX2                !
 ! A42   A(6,10,19)            122.9309         estimate D2E/DX2                !
 ! A43   A(5,18,23)            113.9526         estimate D2E/DX2                !
 ! A44   A(10,19,20)           105.8007         estimate D2E/DX2                !
 ! A45   A(10,19,21)           106.1246         estimate D2E/DX2                !
 ! A46   A(10,19,22)           109.4533         estimate D2E/DX2                !
 ! A47   A(20,19,21)           109.9033         estimate D2E/DX2                !
 ! A48   A(20,19,22)           112.5543         estimate D2E/DX2                !
 ! A49   A(21,19,22)           112.5799         estimate D2E/DX2                !
 ! A50   A(18,23,24)           110.9228         estimate D2E/DX2                !
 ! A51   A(18,23,25)           111.4329         estimate D2E/DX2                !
 ! A52   A(18,23,26)           105.9182         estimate D2E/DX2                !
 ! A53   A(24,23,25)           109.7943         estimate D2E/DX2                !
 ! A54   A(24,23,26)           109.5333         estimate D2E/DX2                !
 ! A55   A(25,23,26)           109.1459         estimate D2E/DX2                !
 ! A56   A(8,27,28)            110.6904         estimate D2E/DX2                !
 ! A57   A(8,27,29)            111.6321         estimate D2E/DX2                !
 ! A58   A(8,27,30)            106.4316         estimate D2E/DX2                !
 ! A59   A(28,27,29)           109.4349         estimate D2E/DX2                !
 ! A60   A(28,27,30)           109.4813         estimate D2E/DX2                !
 ! A61   A(29,27,30)           109.1026         estimate D2E/DX2                !
 ! A62   A(9,31,32)            122.0083         estimate D2E/DX2                !
 ! A63   A(9,31,33)            110.7196         estimate D2E/DX2                !
 ! A64   A(32,31,33)           127.2674         estimate D2E/DX2                !
 ! A65   A(31,33,34)           108.9654         estimate D2E/DX2                !
 ! A66   A(31,33,35)           111.2991         estimate D2E/DX2                !
 ! A67   A(31,33,36)           109.3507         estimate D2E/DX2                !
 ! A68   A(34,33,35)           107.6159         estimate D2E/DX2                !
 ! A69   A(34,33,36)           108.7093         estimate D2E/DX2                !
 ! A70   A(35,33,36)           110.8327         estimate D2E/DX2                !
 ! D1    D(10,1,2,3)            92.7974         estimate D2E/DX2                !
 ! D2    D(10,1,2,7)           -25.6373         estimate D2E/DX2                !
 ! D3    D(10,1,2,13)         -139.6997         estimate D2E/DX2                !
 ! D4    D(11,1,2,3)           -24.1997         estimate D2E/DX2                !
 ! D5    D(11,1,2,7)          -142.6344         estimate D2E/DX2                !
 ! D6    D(11,1,2,13)          103.3032         estimate D2E/DX2                !
 ! D7    D(12,1,2,3)          -153.8633         estimate D2E/DX2                !
 ! D8    D(12,1,2,7)            87.702          estimate D2E/DX2                !
 ! D9    D(12,1,2,13)          -26.3603         estimate D2E/DX2                !
 ! D10   D(2,1,10,6)            -2.9923         estimate D2E/DX2                !
 ! D11   D(2,1,10,19)         -143.8073         estimate D2E/DX2                !
 ! D12   D(11,1,10,6)          116.861          estimate D2E/DX2                !
 ! D13   D(11,1,10,19)         -23.9541         estimate D2E/DX2                !
 ! D14   D(12,1,10,6)         -121.5232         estimate D2E/DX2                !
 ! D15   D(12,1,10,19)          97.6618         estimate D2E/DX2                !
 ! D16   D(1,2,3,4)            -54.417          estimate D2E/DX2                !
 ! D17   D(1,2,3,9)             69.4444         estimate D2E/DX2                !
 ! D18   D(1,2,3,14)          -173.1067         estimate D2E/DX2                !
 ! D19   D(7,2,3,4)             59.9724         estimate D2E/DX2                !
 ! D20   D(7,2,3,9)           -176.1662         estimate D2E/DX2                !
 ! D21   D(7,2,3,14)           -58.7173         estimate D2E/DX2                !
 ! D22   D(13,2,3,4)           177.6079         estimate D2E/DX2                !
 ! D23   D(13,2,3,9)           -58.5308         estimate D2E/DX2                !
 ! D24   D(13,2,3,14)           58.9182         estimate D2E/DX2                !
 ! D25   D(1,2,7,6)             52.0723         estimate D2E/DX2                !
 ! D26   D(3,2,7,6)            -70.4329         estimate D2E/DX2                !
 ! D27   D(13,2,7,6)           169.5746         estimate D2E/DX2                !
 ! D28   D(2,3,4,5)            -40.9215         estimate D2E/DX2                !
 ! D29   D(2,3,4,8)             80.8522         estimate D2E/DX2                !
 ! D30   D(2,3,4,15)          -158.5636         estimate D2E/DX2                !
 ! D31   D(9,3,4,5)           -159.6312         estimate D2E/DX2                !
 ! D32   D(9,3,4,8)            -37.8575         estimate D2E/DX2                !
 ! D33   D(9,3,4,15)            82.7267         estimate D2E/DX2                !
 ! D34   D(14,3,4,5)            77.9151         estimate D2E/DX2                !
 ! D35   D(14,3,4,8)          -160.3112         estimate D2E/DX2                !
 ! D36   D(14,3,4,15)          -39.727          estimate D2E/DX2                !
 ! D37   D(2,3,9,31)           166.6043         estimate D2E/DX2                !
 ! D38   D(4,3,9,31)           -70.4015         estimate D2E/DX2                !
 ! D39   D(14,3,9,31)           50.6825         estimate D2E/DX2                !
 ! D40   D(3,4,5,6)             33.952          estimate D2E/DX2                !
 ! D41   D(3,4,5,16)           155.9355         estimate D2E/DX2                !
 ! D42   D(3,4,5,18)           -80.1274         estimate D2E/DX2                !
 ! D43   D(8,4,5,6)            -87.5085         estimate D2E/DX2                !
 ! D44   D(8,4,5,16)            34.4751         estimate D2E/DX2                !
 ! D45   D(8,4,5,18)           158.4121         estimate D2E/DX2                !
 ! D46   D(15,4,5,6)           151.5971         estimate D2E/DX2                !
 ! D47   D(15,4,5,16)          -86.4194         estimate D2E/DX2                !
 ! D48   D(15,4,5,18)           37.5177         estimate D2E/DX2                !
 ! D49   D(3,4,8,27)           134.3454         estimate D2E/DX2                !
 ! D50   D(5,4,8,27)          -104.1785         estimate D2E/DX2                !
 ! D51   D(15,4,8,27)           15.2467         estimate D2E/DX2                !
 ! D52   D(4,5,6,7)            -49.6154         estimate D2E/DX2                !
 ! D53   D(4,5,6,10)            60.0372         estimate D2E/DX2                !
 ! D54   D(4,5,6,17)           178.2098         estimate D2E/DX2                !
 ! D55   D(16,5,6,7)          -170.9919         estimate D2E/DX2                !
 ! D56   D(16,5,6,10)          -61.3393         estimate D2E/DX2                !
 ! D57   D(16,5,6,17)           56.8333         estimate D2E/DX2                !
 ! D58   D(18,5,6,7)            71.1877         estimate D2E/DX2                !
 ! D59   D(18,5,6,10)         -179.1597         estimate D2E/DX2                !
 ! D60   D(18,5,6,17)          -60.9871         estimate D2E/DX2                !
 ! D61   D(4,5,18,23)          -91.7155         estimate D2E/DX2                !
 ! D62   D(6,5,18,23)          147.0144         estimate D2E/DX2                !
 ! D63   D(16,5,18,23)          30.5677         estimate D2E/DX2                !
 ! D64   D(5,6,7,2)             66.0515         estimate D2E/DX2                !
 ! D65   D(10,6,7,2)           -51.0202         estimate D2E/DX2                !
 ! D66   D(17,6,7,2)          -160.2229         estimate D2E/DX2                !
 ! D67   D(5,6,10,1)           -88.4395         estimate D2E/DX2                !
 ! D68   D(5,6,10,19)           49.98           estimate D2E/DX2                !
 ! D69   D(7,6,10,1)            32.7008         estimate D2E/DX2                !
 ! D70   D(7,6,10,19)          171.1204         estimate D2E/DX2                !
 ! D71   D(17,6,10,1)          147.3694         estimate D2E/DX2                !
 ! D72   D(17,6,10,19)         -74.2111         estimate D2E/DX2                !
 ! D73   D(4,8,27,28)          -57.9298         estimate D2E/DX2                !
 ! D74   D(4,8,27,29)           64.238          estimate D2E/DX2                !
 ! D75   D(4,8,27,30)         -176.8149         estimate D2E/DX2                !
 ! D76   D(3,9,31,32)            2.8223         estimate D2E/DX2                !
 ! D77   D(3,9,31,33)         -176.4414         estimate D2E/DX2                !
 ! D78   D(1,10,19,20)         179.6247         estimate D2E/DX2                !
 ! D79   D(1,10,19,21)         -63.6251         estimate D2E/DX2                !
 ! D80   D(1,10,19,22)          58.1108         estimate D2E/DX2                !
 ! D81   D(6,10,19,20)          46.4154         estimate D2E/DX2                !
 ! D82   D(6,10,19,21)         163.1656         estimate D2E/DX2                !
 ! D83   D(6,10,19,22)         -75.0985         estimate D2E/DX2                !
 ! D84   D(5,18,23,24)         -61.773          estimate D2E/DX2                !
 ! D85   D(5,18,23,25)          60.8811         estimate D2E/DX2                !
 ! D86   D(5,18,23,26)         179.4587         estimate D2E/DX2                !
 ! D87   D(9,31,33,34)          77.5173         estimate D2E/DX2                !
 ! D88   D(9,31,33,35)         -41.0013         estimate D2E/DX2                !
 ! D89   D(9,31,33,36)        -163.786          estimate D2E/DX2                !
 ! D90   D(32,31,33,34)       -101.6981         estimate D2E/DX2                !
 ! D91   D(32,31,33,35)        139.7833         estimate D2E/DX2                !
 ! D92   D(32,31,33,36)         16.9986         estimate D2E/DX2                !
 --------------------------------------------------------------------------------
 Trust Radius=3.00D-01 FncErr=1.00D-07 GrdErr=1.00D-06
 Number of steps in this run=    216 maximum allowed number of steps=    216.
 GradGradGradGradGradGradGradGradGradGradGradGradGradGradGradGradGradGrad

 Leave Link  103 at Mon Jan  9 20:37:17 2017, MaxMem= 13421772800 cpu:         0.4
 (Enter /share/apps//g09/l202.exe)
                          Input orientation:                          
 ---------------------------------------------------------------------
 Center     Atomic      Atomic             Coordinates (Angstroms)
 Number     Number       Type             X           Y           Z
 ---------------------------------------------------------------------
      1          6           0       -1.307760    0.116190    2.600610
      2          6           0       -0.024000   -0.690130    2.877810
      3          6           0        1.286030    0.068000    2.640220
      4          6           0        1.367510    0.671190    1.215270
      5          6           0        0.806800   -0.342050    0.177630
      6          6           0       -0.348790   -1.190310    0.721700
      7          8           0       -0.131100   -1.780160    1.917920
      8          8           0        0.635280    1.894810    1.162830
      9          8           0        1.333790    1.049450    3.685170
     10          8           0       -1.600820   -0.228360    1.177910
     11          1           0       -1.158740    1.198090    2.680910
     12          1           0       -2.168190   -0.238590    3.176930
     13          1           0       -0.036320   -1.141020    3.876550
     14          1           0        2.117370   -0.646160    2.750560
     15          1           0        2.427290    0.847060    0.980440
     16          1           0        0.468090    0.218770   -0.713670
     17          1           0       -0.784210   -1.892600    0.000930
     18          8           0        1.745670   -1.345840   -0.166610
     19          6           0       -2.162190    0.821640    0.309440
     20          1           0       -2.289060    0.358670   -0.673910
     21          1           0       -3.140270    1.074440    0.731350
     22          1           0       -1.480700    1.677930    0.285580
     23          6           0        2.554570   -1.021270   -1.312110
     24          1           0        1.930400   -0.894190   -2.211360
     25          1           0        3.150080   -0.110360   -1.139440
     26          1           0        3.230430   -1.870730   -1.452770
     27          6           0        1.342710    2.956810    0.497150
     28          1           0        2.307340    3.150470    0.990470
     29          1           0        1.514870    2.725780   -0.567750
     30          1           0        0.708260    3.847020    0.572950
     31          6           0        2.560690    1.675820    3.864040
     32          8           0        3.510460    1.444280    3.148070
     33          6           0        2.512380    2.612320    5.032560
     34          1           0        2.580250    2.028200    5.961720
     35          1           0        1.568140    3.168230    5.058460
     36          1           0        3.364840    3.295680    4.984750
 ---------------------------------------------------------------------
                    Distance matrix (angstroms):
                    1          2          3          4          5
     1  C    0.000000
     2  C    1.541114   0.000000
     3  C    2.594540   1.532119   0.000000
     4  C    3.063374   2.559987   1.549503   0.000000
     5  C    3.248412   2.846465   2.542076   1.554911   0.000000
     6  C    2.481304   2.237069   2.817215   2.579628   1.533279
     7  O    2.333825   1.456374   2.438374   2.957814   2.444673
     8  O    3.001017   3.171391   2.437907   1.426940   2.450221
     9  O    3.004169   2.349801   1.434380   2.498925   3.810095
    10  O    1.492874   2.364160   3.249628   3.101865   2.609621
    11  H    1.095063   2.211737   2.693633   2.967771   3.535787
    12  H    1.094693   2.211541   3.509087   4.144513   4.225763
    13  H    2.196625   1.095872   2.176890   3.512443   3.877011
    14  H    3.512147   2.145598   1.101511   2.157502   2.903454
    15  H    4.136390   3.460027   2.159694   1.099640   2.164365
    16  H    3.761465   3.737242   3.455479   2.175879   1.106191
    17  H    3.326812   3.209407   3.885318   3.560553   2.228619
    18  O    4.372468   3.581924   3.176241   2.474067   1.416888
    19  C    2.545029   3.667946   4.229743   3.647183   3.191622
    20  H    3.426985   4.341105   4.883566   4.127611   3.286408
    21  H    2.787556   4.175181   4.924311   4.551579   4.229942
    22  H    2.797911   3.801229   3.973789   3.160720   3.053625
    23  C    5.614338   4.930934   4.291458   3.265147   2.394862
    24  H    5.887411   5.455362   4.987870   3.809075   2.697148
    25  H    5.823370   5.152593   4.218095   3.055002   2.698021
    26  H    6.401008   5.544281   4.928685   4.129197   3.296824
    27  C    4.417992   4.564604   3.597386   2.395907   3.357346
    28  H    4.986818   4.873131   3.642303   2.660948   3.887162
    29  H    4.981536   5.090034   4.172198   2.724374   3.235512
    30  H    4.700514   5.141431   4.346080   3.306521   4.208835
    31  C    4.358165   3.640191   2.389054   3.073913   4.553850
    32  O    5.027801   4.137772   2.664610   2.987577   4.395937
    33  C    5.170930   4.688534   3.701458   4.432879   5.933604
    34  H    5.483563   4.866409   4.068139   5.083405   6.497608
    35  H    4.860738   4.709255   3.941941   4.587545   6.060050
    36  H    6.134042   5.640046   4.498465   5.008618   6.548668
                    6          7          8          9         10
     6  C    0.000000
     7  O    1.351390   0.000000
     8  O    3.268173   3.829217   0.000000
     9  O    4.077960   3.643593   2.750409   0.000000
    10  O    1.643489   2.261808   3.083540   4.065844   0.000000
    11  H    3.193584   3.241631   2.451223   2.691345   2.118774
    12  H    3.200647   2.848031   4.058009   3.765796   2.078002
    13  H    3.170670   2.062454   4.126934   2.590750   3.250118
    14  H    3.239493   2.652332   3.342754   2.088681   4.058660
    15  H    3.453179   3.785038   2.083830   2.924426   4.173870
    16  H    2.170964   3.358573   2.521570   4.559524   2.838730
    17  H    1.096500   2.028311   4.208258   5.168676   2.195866
    18  O    2.280361   2.838338   3.674532   4.554478   3.775644
    19  C    2.739767   3.671770   3.115414   4.865113   1.473729
    20  H    2.848107   3.993616   3.779564   5.709974   2.060950
    21  H    3.594655   4.314139   3.887668   5.361240   2.065577
    22  H    3.114197   4.055162   2.300864   4.457976   2.108228
    23  C    3.548867   4.268704   4.279314   5.545358   4.908785
    24  H    3.726290   4.699540   4.565196   6.237207   4.939635
    25  H    4.107581   4.785585   3.955423   5.284026   5.287257
    26  H    4.242889   4.761264   5.268345   6.206700   5.740978
    27  C    4.484440   5.160386   1.439247   3.715047   4.390115
    28  H    5.096041   5.578285   2.098136   3.552955   5.169656
    29  H    4.524563   5.402894   2.111657   4.574954   4.634846
    30  H    5.149192   5.846249   2.040688   4.231264   4.722981
    31  C    5.153065   4.793424   3.324409   1.389107   5.306539
    32  O    5.265182   5.017095   3.522899   2.276458   5.727516
    33  C    6.421044   5.998571   4.360405   2.376362   6.312385
    34  H    6.811453   6.181209   5.179773   2.773859   6.742273
    35  H    6.440418   6.102210   4.203303   2.535759   6.052917
    36  H    7.217254   6.884126   4.901021   3.295394   7.181133
                   11         12         13         14         15
    11  H    0.000000
    12  H    1.824575   0.000000
    13  H    2.856714   2.418412   0.000000
    14  H    3.760187   4.325960   2.480145   0.000000
    15  H    3.984273   5.207844   4.290605   2.336468   0.000000
    16  H    3.889578   4.721855   4.813894   3.933080   2.665187
    17  H    4.107911   3.839027   4.018040   4.187272   4.333464
    18  O    4.797452   5.265317   4.423187   3.022845   2.566932
    19  C    2.602402   3.057225   4.592998   5.140830   4.638342
    20  H    3.638278   3.898756   5.294393   5.670388   5.021888
    21  H    2.782541   2.941063   4.943182   5.889011   5.577766
    22  H    2.464044   3.536325   4.788296   4.942027   4.055313
    23  C    5.887142   6.562662   5.800797   4.103308   2.960176
    24  H    6.152620   6.801612   6.402465   4.971632   3.669665
    25  H    5.905340   6.850656   6.031216   4.060255   2.435769
    26  H    6.765337   7.296787   6.293313   4.517351   3.735228
    27  C    3.757547   5.451442   5.487648   4.319647   2.420935
    28  H    4.322394   6.024675   5.677947   4.189082   2.306553
    29  H    4.476139   6.031173   6.091809   4.769084   2.599806
    30  H    3.866008   5.634437   6.028990   5.188087   3.481504
    31  C    3.932198   5.147756   3.831345   2.613037   3.003296
    32  O    4.698965   5.922833   4.449057   2.543355   2.495706
    33  C    4.583386   5.786086   4.681858   3.997655   4.420753
    34  H    5.043099   5.953241   4.608506   4.204522   5.121683
    35  H    4.119475   5.395066   4.747719   4.491951   4.770348
    36  H    5.492753   6.809824   5.699149   4.699563   4.786360
                   16         17         18         19         20
    16  H    0.000000
    17  H    2.556715   0.000000
    18  O    2.092723   2.593706   0.000000
    19  C    2.885928   3.059592   4.493992   0.000000
    20  H    2.760983   2.790735   4.409280   1.094264   0.000000
    21  H    3.980015   3.858479   5.525984   1.094786   1.792105
    22  H    2.631621   3.648946   4.444899   1.094637   1.820581
    23  C    2.499846   3.691983   1.439387   5.317289   5.076641
    24  H    2.370676   3.641450   2.102169   5.103704   4.662323
    25  H    2.735448   4.467154   2.108359   5.584630   5.479138
    26  H    3.541582   4.269784   2.033280   6.279697   6.003467
    27  C    3.118959   5.318534   4.372156   4.108346   4.616434
    28  H    3.857693   5.997452   4.676656   5.085661   5.629494
    29  H    2.720687   5.190241   4.097837   4.232727   4.481558
    30  H    3.857107   5.958012   5.346865   4.178737   4.765204
    31  C    5.239981   6.232624   5.103021   5.972470   6.771111
    32  O    5.066648   6.283586   4.678286   6.373732   7.029972
    33  C    6.551898   7.515258   6.579228   6.882296   7.790800
    34  H    7.231603   7.888173   7.045360   7.476282   8.398160
    35  H    6.574717   7.531544   6.907221   6.478815   7.458665
    36  H    7.094401   8.304898   7.120529   7.650324   8.521329
                   21         22         23         24         25
    21  H    0.000000
    22  H    1.821286   0.000000
    23  C    6.403041   5.110939   0.000000
    24  H    6.184395   4.948345   1.101993   0.000000
    25  H    6.668741   5.164570   1.101909   1.803059   0.000000
    26  H    7.350525   6.148951   1.094602   1.794204   1.789842
    27  C    4.867779   3.106757   4.535102   4.744640   3.918232
    28  H    5.835538   4.124863   4.771416   5.172337   3.984939
    29  H    5.107339   3.286275   3.959221   3.997287   3.323316
    30  H    4.745890   3.095009   5.537378   5.632502   4.955363
    31  C    6.532714   5.397982   5.836682   6.626666   5.345337
    32  O    7.085868   5.758482   5.185158   6.057105   4.574879
    33  C    7.267595   6.273085   7.311607   8.068996   6.775930
    34  H    7.809659   6.988030   7.887238   8.704131   7.438052
    35  H    6.728816   5.856347   7.688245   8.335753   7.187882
    36  H    8.083426   6.941079   7.677437   8.449653   7.010915
                   26         27         28         29         30
    26  H    0.000000
    27  C    5.538124   0.000000
    28  H    5.659856   1.100627   0.000000
    29  H    4.985410   1.103189   1.799005   0.000000
    30  H    6.569440   1.095786   1.793478   1.791367   0.000000
    31  C    6.426121   3.802678   3.239781   4.672999   4.356246
    32  O    5.677626   3.743563   3.002302   4.408167   4.500747
    33  C    7.916618   4.696461   4.082908   5.689584   4.966634
    34  H    8.402324   5.679379   5.103655   6.652491   5.987595
    35  H    8.399431   4.571768   4.134643   5.643832   4.617353
    36  H    8.255394   4.933801   4.134449   5.880258   5.179322
                   31         32         33         34         35
    31  C    0.000000
    32  O    1.211729   0.000000
    33  C    1.498267   2.431416   0.000000
    34  H    2.127161   3.020410   1.099609   0.000000
    35  H    2.153853   3.224004   1.096036   1.771980   0.000000
    36  H    2.127580   2.611950   1.093597   1.782290   1.802722
                   36
    36  H    0.000000
 Stoichiometry    C11H19O6(1+)
 Framework group  C1[X(C11H19O6)]
 Deg. of freedom   102
 Full point group                 C1      NOp   1
 Largest Abelian subgroup         C1      NOp   1
 Largest concise Abelian subgroup C1      NOp   1
                         Standard orientation:                         
 ---------------------------------------------------------------------
 Center     Atomic      Atomic             Coordinates (Angstroms)
 Number     Number       Type             X           Y           Z
 ---------------------------------------------------------------------
      1          6           0       -0.589511   -2.262400   -0.161831
      2          6           0       -0.164435   -1.310468   -1.296806
      3          6           0        0.707261   -0.127441   -0.863237
      4          6           0        0.053811    0.701166    0.271388
      5          6           0       -1.469333    0.860289    0.002200
      6          6           0       -2.094604   -0.360040   -0.683932
      7          8           0       -1.445803   -0.813924   -1.779058
      8          8           0        0.273654    0.062376    1.528278
      9          8           0        1.963590   -0.715161   -0.497630
     10          8           0       -1.909767   -1.699971    0.249595
     11          1           0        0.090978   -2.235878    0.695720
     12          1           0       -0.794176   -3.279486   -0.511118
     13          1           0        0.301611   -1.852658   -2.127327
     14          1           0        0.836391    0.536735   -1.732445
     15          1           0        0.506765    1.703164    0.265021
     16          1           0       -1.979119    1.045944    0.966207
     17          1           0       -3.174746   -0.287742   -0.858225
     18          8           0       -1.752970    1.880026   -0.939745
     19          6           0       -2.265969   -1.735776    1.679181
     20          1           0       -3.255015   -1.273204    1.751492
     21          1           0       -2.328976   -2.794561    1.950403
     22          1           0       -1.507743   -1.198183    2.257382
     23          6           0       -1.989033    3.171464   -0.349579
     24          1           0       -2.867166    3.145544    0.315701
     25          1           0       -1.107922    3.525973    0.209144
     26          1           0       -2.182444    3.852293   -1.184575
     27          6           0        0.698662    0.967465    2.563466
     28          1           0        1.624518    1.485704    2.270893
     29          1           0       -0.080666    1.712358    2.797575
     30          1           0        0.887887    0.355021    3.452202
     31          6           0        3.019314    0.174253   -0.342691
     32          8           0        2.872518    1.371580   -0.457347
     33          6           0        4.291665   -0.559614   -0.047111
     34          1           0        4.681137   -0.990109   -0.980988
     35          1           0        4.121485   -1.385422    0.653158
     36          1           0        5.030453    0.141710    0.350748
 ---------------------------------------------------------------------
 Rotational constants (GHZ):      0.6207027      0.3890045      0.3392146
 Leave Link  202 at Mon Jan  9 20:37:17 2017, MaxMem= 13421772800 cpu:         0.3
 (Enter /share/apps//g09/l301.exe)
 Standard basis: 6-311+G(d,p) (5D, 7F)
 Ernie: Thresh=  0.10000D-02 Tol=  0.10000D-05 Strict=F.
 There are   505 symmetry adapted cartesian basis functions of A   symmetry.
 There are   488 symmetry adapted basis functions of A   symmetry.
   488 basis functions,   764 primitive gaussians,   505 cartesian basis functions
    66 alpha electrons       66 beta electrons
       nuclear repulsion energy      1449.4844491396 Hartrees.
 IExCor= 1009 DFT=T Ex+Corr=PBE1PBE ExCW=0 ScaHFX=  0.250000
 ScaDFX=  0.750000  0.750000  1.000000  1.000000 ScalE2=  1.000000  1.000000
 IRadAn=      0 IRanWt=     -1 IRanGd=            0 ICorTp=0 IEmpDi=131
 NAtoms=   36 NActive=   36 NUniq=   36 SFac= 1.00D+00 NAtFMM=   60 NAOKFM=F Big=F
 Integral buffers will be    131072 words long.
 Raffenetti 2 integral format.
 Two-electron integral symmetry is turned on.
 R6Disp:  Grimme-D3 Dispersion energy=       -0.0266393595 Hartrees.
 Nuclear repulsion after empirical dispersion term =     1449.4578097801 Hartrees.
 Leave Link  301 at Mon Jan  9 20:37:17 2017, MaxMem= 13421772800 cpu:         1.9
 (Enter /share/apps//g09/l302.exe)
 NPDir=0 NMtPBC=     1 NCelOv=     1 NCel=       1 NClECP=     1 NCelD=      1
         NCelK=      1 NCelE2=     1 NClLst=     1 CellRange=     0.0.
 One-electron integrals computed using PRISM.
 NBasis=   488 RedAO= T EigKep=  2.34D-06  NBF=   488
 NBsUse=   488 1.00D-06 EigRej= -1.00D+00 NBFU=   488
 Precomputing XC quadrature grid using
 IXCGrd= 4 IRadAn=           0 IRanWt=          -1 IRanGd=           0 AccXCQ= 0.00D+00.
 Generated NRdTot=       0 NPtTot=           0 NUsed=           0 NTot=          32
 NSgBfM=   505   505   505   505   505 MxSgAt=    36 MxSgA2=    36.
 Leave Link  302 at Mon Jan  9 20:37:18 2017, MaxMem= 13421772800 cpu:        10.0
 (Enter /share/apps//g09/l303.exe)
 DipDrv:  MaxL=1.
 Leave Link  303 at Mon Jan  9 20:37:19 2017, MaxMem= 13421772800 cpu:         8.4
 (Enter /share/apps//g09/l401.exe)
 ExpMin= 4.38D-02 ExpMax= 8.59D+03 ExpMxC= 1.30D+03 IAcc=2 IRadAn=         4 AccDes= 0.00D+00
 Harris functional with IExCor= 1009 and IRadAn=       4 diagonalized for initial guess.
 HarFok:  IExCor= 1009 AccDes= 0.00D+00 IRadAn=         4 IDoV= 1 UseB2=F ITyADJ=14
 ICtDFT=  3500011 ScaDFX=  1.000000  1.000000  1.000000  1.000000
 FoFCou: FMM=F IPFlag=           0 FMFlag=      100000 FMFlg1=           0
         NFxFlg=           0 DoJE=T BraDBF=F KetDBF=T FulRan=T
         wScrn=  0.000000 ICntrl=     500 IOpCl=  0 I1Cent=   200000004 NGrid=           0
         NMat0=    1 NMatS0=      1 NMatT0=    0 NMatD0=    1 NMtDS0=    0 NMtDT0=    0
 Petite list used in FoFCou.
 Harris En= -881.097390363442    
 JPrj=0 DoOrth=F DoCkMO=F.
 Leave Link  401 at Mon Jan  9 20:37:20 2017, MaxMem= 13421772800 cpu:        23.8
 (Enter /share/apps//g09/l502.exe)
 Closed shell SCF:
 Using DIIS extrapolation, IDIIS=  1040.
 Integral symmetry usage will be decided dynamically.
 Keep R1 ints in memory in canonical form, NReq=7183787934.
 IVT=      797493 IEndB=      797493 NGot= 13421772800 MDV=  6302761722
 LenX=  6302761722 LenY=  6302506192
 Requested convergence on RMS density matrix=1.00D-08 within 128 cycles.
 Requested convergence on MAX density matrix=1.00D-06.
 Requested convergence on             energy=1.00D-06.
 No special actions if energy rises.
 FoFCou: FMM=F IPFlag=           0 FMFlag=           0 FMFlg1=           0
         NFxFlg=           0 DoJE=F BraDBF=F KetDBF=F FulRan=T
         wScrn=  0.000000 ICntrl=     600 IOpCl=  0 I1Cent=           0 NGrid=           0
         NMat0=    1 NMatS0= 119316 NMatT0=    0 NMatD0=    1 NMtDS0=    0 NMtDT0=    0
 Symmetry not used in FoFCou.

 Cycle   1  Pass 1  IDiag  1:
 E= -880.625654011043    
 DIIS: error= 1.61D-02 at cycle   1 NSaved=   1.
 NSaved= 1 IEnMin= 1 EnMin= -880.625654011043     IErMin= 1 ErrMin= 1.61D-02
 ErrMax= 1.61D-02  0.00D+00 EMaxC= 1.00D-01 BMatC= 3.99D-01 BMatP= 3.99D-01
 IDIUse=3 WtCom= 8.39D-01 WtEn= 1.61D-01
 Coeff-Com:  0.100D+01
 Coeff-En:   0.100D+01
 Coeff:      0.100D+01
 Gap=     0.268 Goal=   None    Shift=    0.000
 GapD=    0.268 DampG=1.000 DampE=0.500 DampFc=0.5000 IDamp=-1.
 Damping current iteration by 5.00D-01
 RMSDP=7.80D-03 MaxDP=8.50D-01              OVMax= 2.09D-01

 Cycle   2  Pass 1  IDiag  1:
 E= -880.731621520497     Delta-E=       -0.105967509454 Rises=F Damp=T
 DIIS: error= 6.41D-03 at cycle   2 NSaved=   2.
 NSaved= 2 IEnMin= 2 EnMin= -880.731621520497     IErMin= 2 ErrMin= 6.41D-03
 ErrMax= 6.41D-03  0.00D+00 EMaxC= 1.00D-01 BMatC= 5.26D-02 BMatP= 3.99D-01
 IDIUse=3 WtCom= 9.36D-01 WtEn= 6.41D-02
 Coeff-Com:  0.113D+00 0.887D+00
 Coeff-En:   0.225D+00 0.775D+00
 Coeff:      0.120D+00 0.880D+00
 Gap=     0.300 Goal=   None    Shift=    0.000
 RMSDP=4.90D-03 MaxDP=9.70D-01 DE=-1.06D-01 OVMax= 1.50D-01

 Cycle   3  Pass 1  IDiag  1:
 E= -880.872008631560     Delta-E=       -0.140387111063 Rises=F Damp=F
 DIIS: error= 1.07D-02 at cycle   3 NSaved=   3.
 NSaved= 3 IEnMin= 3 EnMin= -880.872008631560     IErMin= 2 ErrMin= 6.41D-03
 ErrMax= 1.07D-02  0.00D+00 EMaxC= 1.00D-01 BMatC= 5.87D-02 BMatP= 5.26D-02
 IDIUse=2 WtCom= 0.00D+00 WtEn= 1.00D+00
 Coeff-En:   0.000D+00 0.000D+00 0.100D+01
 Coeff:      0.000D+00 0.000D+00 0.100D+01
 Gap=     0.237 Goal=   None    Shift=    0.000
 RMSDP=3.57D-03 MaxDP=2.93D-01 DE=-1.40D-01 OVMax= 2.39D-01

 Cycle   4  Pass 1  IDiag  1:
 E= -880.701507713564     Delta-E=        0.170500917996 Rises=F Damp=F
 DIIS: error= 2.55D-02 at cycle   4 NSaved=   4.
 NSaved= 4 IEnMin= 3 EnMin= -880.872008631560     IErMin= 2 ErrMin= 6.41D-03
 ErrMax= 2.55D-02  0.00D+00 EMaxC= 1.00D-01 BMatC= 2.90D-01 BMatP= 5.26D-02
 IDIUse=2 WtCom= 0.00D+00 WtEn= 1.00D+00
 Coeff-En:   0.000D+00 0.000D+00 0.779D+00 0.221D+00
 Coeff:      0.000D+00 0.000D+00 0.779D+00 0.221D+00
 Gap=     0.236 Goal=   None    Shift=    0.000
 RMSDP=2.02D-03 MaxDP=2.42D-01 DE= 1.71D-01 OVMax= 1.05D-01

 Cycle   5  Pass 1  IDiag  1:
 E= -880.901364762653     Delta-E=       -0.199857049089 Rises=F Damp=F
 DIIS: error= 6.16D-03 at cycle   5 NSaved=   5.
 NSaved= 5 IEnMin= 5 EnMin= -880.901364762653     IErMin= 5 ErrMin= 6.16D-03
 ErrMax= 6.16D-03  0.00D+00 EMaxC= 1.00D-01 BMatC= 1.96D-02 BMatP= 5.26D-02
 IDIUse=3 WtCom= 9.38D-01 WtEn= 6.16D-02
 Coeff-Com:  0.585D-02 0.434D-02 0.346D+00-0.149D-01 0.659D+00
 Coeff-En:   0.000D+00 0.000D+00 0.294D+00 0.000D+00 0.706D+00
 Coeff:      0.549D-02 0.407D-02 0.343D+00-0.140D-01 0.662D+00
 Gap=     0.258 Goal=   None    Shift=    0.000
 RMSDP=7.75D-04 MaxDP=1.10D-01 DE=-2.00D-01 OVMax= 2.75D-02

 Cycle   6  Pass 1  IDiag  1:
 E= -880.915538595760     Delta-E=       -0.014173833107 Rises=F Damp=F
 DIIS: error= 5.44D-04 at cycle   6 NSaved=   6.
 NSaved= 6 IEnMin= 6 EnMin= -880.915538595760     IErMin= 6 ErrMin= 5.44D-04
 ErrMax= 5.44D-04  0.00D+00 EMaxC= 1.00D-01 BMatC= 2.22D-04 BMatP= 1.96D-02
 IDIUse=3 WtCom= 9.95D-01 WtEn= 5.44D-03
 Coeff-Com:  0.489D-04 0.229D-02 0.135D+00-0.451D-01 0.413D+00 0.494D+00
 Coeff-En:   0.000D+00 0.000D+00 0.000D+00 0.000D+00 0.000D+00 0.100D+01
 Coeff:      0.486D-04 0.228D-02 0.135D+00-0.449D-01 0.411D+00 0.497D+00
 Gap=     0.252 Goal=   None    Shift=    0.000
 RMSDP=1.31D-04 MaxDP=1.64D-02 DE=-1.42D-02 OVMax= 1.86D-03

 Cycle   7  Pass 1  IDiag  1:
 E= -880.915690094677     Delta-E=       -0.000151498917 Rises=F Damp=F
 DIIS: error= 9.37D-05 at cycle   7 NSaved=   7.
 NSaved= 7 IEnMin= 7 EnMin= -880.915690094677     IErMin= 7 ErrMin= 9.37D-05
 ErrMax= 9.37D-05  0.00D+00 EMaxC= 1.00D-01 BMatC= 9.72D-06 BMatP= 2.22D-04
 IDIUse=1 WtCom= 1.00D+00 WtEn= 0.00D+00
 Coeff-Com: -0.386D-03 0.959D-03 0.541D-01-0.254D-01 0.189D+00 0.256D+00
 Coeff-Com:  0.526D+00
 Coeff:     -0.386D-03 0.959D-03 0.541D-01-0.254D-01 0.189D+00 0.256D+00
 Coeff:      0.526D+00
 Gap=     0.252 Goal=   None    Shift=    0.000
 RMSDP=2.99D-05 MaxDP=3.28D-03 DE=-1.51D-04 OVMax= 3.73D-04

 Cycle   8  Pass 1  IDiag  1:
 E= -880.915696732862     Delta-E=       -0.000006638184 Rises=F Damp=F
 DIIS: error= 3.97D-05 at cycle   8 NSaved=   8.
 NSaved= 8 IEnMin= 8 EnMin= -880.915696732862     IErMin= 8 ErrMin= 3.97D-05
 ErrMax= 3.97D-05  0.00D+00 EMaxC= 1.00D-01 BMatC= 8.95D-07 BMatP= 9.72D-06
 IDIUse=1 WtCom= 1.00D+00 WtEn= 0.00D+00
 Coeff-Com:  0.730D-04-0.267D-03 0.688D-02-0.459D-02 0.258D-01 0.359D-01
 Coeff-Com:  0.239D+00 0.697D+00
 Coeff:      0.730D-04-0.267D-03 0.688D-02-0.459D-02 0.258D-01 0.359D-01
 Coeff:      0.239D+00 0.697D+00
 Gap=     0.252 Goal=   None    Shift=    0.000
 RMSDP=9.73D-06 MaxDP=1.62D-03 DE=-6.64D-06 OVMax= 1.67D-04

 Cycle   9  Pass 1  IDiag  1:
 E= -880.915697397332     Delta-E=       -0.000000664470 Rises=F Damp=F
 DIIS: error= 7.44D-06 at cycle   9 NSaved=   9.
 NSaved= 9 IEnMin= 9 EnMin= -880.915697397332     IErMin= 9 ErrMin= 7.44D-06
 ErrMax= 7.44D-06  0.00D+00 EMaxC= 1.00D-01 BMatC= 4.90D-08 BMatP= 8.95D-07
 IDIUse=1 WtCom= 1.00D+00 WtEn= 0.00D+00
 Coeff-Com:  0.653D-04-0.235D-03 0.931D-03-0.965D-03 0.361D-02 0.402D-02
 Coeff-Com:  0.876D-01 0.334D+00 0.571D+00
 Coeff:      0.653D-04-0.235D-03 0.931D-03-0.965D-03 0.361D-02 0.402D-02
 Coeff:      0.876D-01 0.334D+00 0.571D+00
 Gap=     0.252 Goal=   None    Shift=    0.000
 RMSDP=2.81D-06 MaxDP=4.24D-04 DE=-6.64D-07 OVMax= 3.22D-05

 Cycle  10  Pass 1  IDiag  1:
 E= -880.915697435310     Delta-E=       -0.000000037978 Rises=F Damp=F
 DIIS: error= 2.29D-06 at cycle  10 NSaved=  10.
 NSaved=10 IEnMin=10 EnMin= -880.915697435310     IErMin=10 ErrMin= 2.29D-06
 ErrMax= 2.29D-06  0.00D+00 EMaxC= 1.00D-01 BMatC= 4.02D-09 BMatP= 4.90D-08
 IDIUse=1 WtCom= 1.00D+00 WtEn= 0.00D+00
 Coeff-Com:  0.133D-04-0.556D-04-0.377D-03 0.340D-04-0.108D-02-0.209D-02
 Coeff-Com:  0.103D-01 0.658D-01 0.252D+00 0.676D+00
 Coeff:      0.133D-04-0.556D-04-0.377D-03 0.340D-04-0.108D-02-0.209D-02
 Coeff:      0.103D-01 0.658D-01 0.252D+00 0.676D+00
 Gap=     0.252 Goal=   None    Shift=    0.000
 RMSDP=7.28D-07 MaxDP=8.83D-05 DE=-3.80D-08 OVMax= 1.02D-05

 Cycle  11  Pass 1  IDiag  1:
 E= -880.915697438446     Delta-E=       -0.000000003136 Rises=F Damp=F
 DIIS: error= 6.06D-07 at cycle  11 NSaved=  11.
 NSaved=11 IEnMin=11 EnMin= -880.915697438446     IErMin=11 ErrMin= 6.06D-07
 ErrMax= 6.06D-07  0.00D+00 EMaxC= 1.00D-01 BMatC= 4.03D-10 BMatP= 4.02D-09
 IDIUse=1 WtCom= 1.00D+00 WtEn= 0.00D+00
 Coeff-Com: -0.145D-05-0.121D-05-0.294D-03 0.101D-03-0.886D-03-0.139D-02
 Coeff-Com: -0.284D-02 0.419D-02 0.692D-01 0.307D+00 0.625D+00
 Coeff:     -0.145D-05-0.121D-05-0.294D-03 0.101D-03-0.886D-03-0.139D-02
 Coeff:     -0.284D-02 0.419D-02 0.692D-01 0.307D+00 0.625D+00
 Gap=     0.252 Goal=   None    Shift=    0.000
 RMSDP=2.45D-07 MaxDP=3.43D-05 DE=-3.14D-09 OVMax= 4.20D-06

 Cycle  12  Pass 1  IDiag  1:
 E= -880.915697438770     Delta-E=       -0.000000000324 Rises=F Damp=F
 DIIS: error= 2.54D-07 at cycle  12 NSaved=  12.
 NSaved=12 IEnMin=12 EnMin= -880.915697438770     IErMin=12 ErrMin= 2.54D-07
 ErrMax= 2.54D-07  0.00D+00 EMaxC= 1.00D-01 BMatC= 5.36D-11 BMatP= 4.03D-10
 IDIUse=1 WtCom= 1.00D+00 WtEn= 0.00D+00
 Coeff-Com: -0.358D-05 0.754D-05-0.112D-03 0.402D-04-0.310D-03-0.437D-03
 Coeff-Com: -0.246D-02-0.421D-02 0.109D-01 0.903D-01 0.319D+00 0.587D+00
 Coeff:     -0.358D-05 0.754D-05-0.112D-03 0.402D-04-0.310D-03-0.437D-03
 Coeff:     -0.246D-02-0.421D-02 0.109D-01 0.903D-01 0.319D+00 0.587D+00
 Gap=     0.252 Goal=   None    Shift=    0.000
 RMSDP=6.32D-08 MaxDP=8.11D-06 DE=-3.24D-10 OVMax= 1.14D-06

 Cycle  13  Pass 1  IDiag  1:
 E= -880.915697438821     Delta-E=       -0.000000000051 Rises=F Damp=F
 DIIS: error= 5.04D-08 at cycle  13 NSaved=  13.
 NSaved=13 IEnMin=13 EnMin= -880.915697438821     IErMin=13 ErrMin= 5.04D-08
 ErrMax= 5.04D-08  0.00D+00 EMaxC= 1.00D-01 BMatC= 2.86D-12 BMatP= 5.36D-11
 IDIUse=1 WtCom= 1.00D+00 WtEn= 0.00D+00
 Coeff-Com: -0.120D-05 0.301D-05-0.878D-05 0.411D-05-0.177D-04-0.126D-04
 Coeff-Com: -0.539D-03-0.182D-02-0.328D-02-0.105D-02 0.501D-01 0.225D+00
 Coeff-Com:  0.732D+00
 Coeff:     -0.120D-05 0.301D-05-0.878D-05 0.411D-05-0.177D-04-0.126D-04
 Coeff:     -0.539D-03-0.182D-02-0.328D-02-0.105D-02 0.501D-01 0.225D+00
 Coeff:      0.732D+00
 Gap=     0.252 Goal=   None    Shift=    0.000
 RMSDP=1.96D-08 MaxDP=3.00D-06 DE=-5.14D-11 OVMax= 5.44D-07

 Cycle  14  Pass 1  IDiag  1:
 E= -880.915697438816     Delta-E=        0.000000000005 Rises=F Damp=F
 DIIS: error= 1.90D-08 at cycle  14 NSaved=  14.
 NSaved=14 IEnMin=13 EnMin= -880.915697438821     IErMin=14 ErrMin= 1.90D-08
 ErrMax= 1.90D-08  0.00D+00 EMaxC= 1.00D-01 BMatC= 4.22D-13 BMatP= 2.86D-12
 IDIUse=1 WtCom= 1.00D+00 WtEn= 0.00D+00
 Coeff-Com: -0.300D-06 0.851D-06 0.273D-05-0.345D-06 0.907D-05 0.137D-04
 Coeff-Com: -0.877D-04-0.616D-03-0.246D-02-0.807D-02-0.247D-02 0.601D-01
 Coeff-Com:  0.350D+00 0.604D+00
 Coeff:     -0.300D-06 0.851D-06 0.273D-05-0.345D-06 0.907D-05 0.137D-04
 Coeff:     -0.877D-04-0.616D-03-0.246D-02-0.807D-02-0.247D-02 0.601D-01
 Coeff:      0.350D+00 0.604D+00
 Gap=     0.252 Goal=   None    Shift=    0.000
 RMSDP=1.13D-08 MaxDP=1.83D-06 DE= 5.00D-12 OVMax= 1.12D-07

 Cycle  15  Pass 1  IDiag  1:
 E= -880.915697438823     Delta-E=       -0.000000000007 Rises=F Damp=F
 DIIS: error= 4.73D-09 at cycle  15 NSaved=  15.
 NSaved=15 IEnMin=15 EnMin= -880.915697438823     IErMin=15 ErrMin= 4.73D-09
 ErrMax= 4.73D-09  0.00D+00 EMaxC= 1.00D-01 BMatC= 3.18D-14 BMatP= 4.22D-13
 IDIUse=1 WtCom= 1.00D+00 WtEn= 0.00D+00
 Coeff-Com: -0.215D-07 0.146D-06 0.201D-05-0.604D-06 0.565D-05 0.562D-05
 Coeff-Com:  0.110D-04-0.111D-03-0.755D-03-0.334D-02-0.470D-02 0.973D-02
 Coeff-Com:  0.925D-01 0.266D+00 0.641D+00
 Coeff:     -0.215D-07 0.146D-06 0.201D-05-0.604D-06 0.565D-05 0.562D-05
 Coeff:      0.110D-04-0.111D-03-0.755D-03-0.334D-02-0.470D-02 0.973D-02
 Coeff:      0.925D-01 0.266D+00 0.641D+00
 Gap=     0.252 Goal=   None    Shift=    0.000
 RMSDP=6.11D-09 MaxDP=8.71D-07 DE=-6.82D-12 OVMax= 3.18D-08

 SCF Done:  E(RPBE1PBE) =  -880.915697439     A.U. after   15 cycles
            NFock= 15  Conv=0.61D-08     -V/T= 2.0044
 KE= 8.770961477287D+02 PE=-4.942122880303D+03 EE= 1.734653225355D+03
 Leave Link  502 at Mon Jan  9 20:40:59 2017, MaxMem= 13421772800 cpu:      1118.8
 (Enter /share/apps//g09/l601.exe)
 Copying SCF densities to generalized density rwf, IOpCl= 0 IROHF=0.

 **********************************************************************

            Population analysis using the SCF density.

 **********************************************************************

 Orbital symmetries:
       Occupied  (A) (A) (A) (A) (A) (A) (A) (A) (A) (A) (A) (A)
                 (A) (A) (A) (A) (A) (A) (A) (A) (A) (A) (A) (A)
                 (A) (A) (A) (A) (A) (A) (A) (A) (A) (A) (A) (A)
                 (A) (A) (A) (A) (A) (A) (A) (A) (A) (A) (A) (A)
                 (A) (A) (A) (A) (A) (A) (A) (A) (A) (A) (A) (A)
                 (A) (A) (A) (A) (A) (A)
       Virtual   (A) (A) (A) (A) (A) (A) (A) (A) (A) (A) (A) (A)
                 (A) (A) (A) (A) (A) (A) (A) (A) (A) (A) (A) (A)
                 (A) (A) (A) (A) (A) (A) (A) (A) (A) (A) (A) (A)
                 (A) (A) (A) (A) (A) (A) (A) (A) (A) (A) (A) (A)
                 (A) (A) (A) (A) (A) (A) (A) (A) (A) (A) (A) (A)
                 (A) (A) (A) (A) (A) (A) (A) (A) (A) (A) (A) (A)
                 (A) (A) (A) (A) (A) (A) (A) (A) (A) (A) (A) (A)
                 (A) (A) (A) (A) (A) (A) (A) (A) (A) (A) (A) (A)
                 (A) (A) (A) (A) (A) (A) (A) (A) (A) (A) (A) (A)
                 (A) (A) (A) (A) (A) (A) (A) (A) (A) (A) (A) (A)
                 (A) (A) (A) (A) (A) (A) (A) (A) (A) (A) (A) (A)
                 (A) (A) (A) (A) (A) (A) (A) (A) (A) (A) (A) (A)
                 (A) (A) (A) (A) (A) (A) (A) (A) (A) (A) (A) (A)
                 (A) (A) (A) (A) (A) (A) (A) (A) (A) (A) (A) (A)
                 (A) (A) (A) (A) (A) (A) (A) (A) (A) (A) (A) (A)
                 (A) (A) (A) (A) (A) (A) (A) (A) (A) (A) (A) (A)
                 (A) (A) (A) (A) (A) (A) (A) (A) (A) (A) (A) (A)
                 (A) (A) (A) (A) (A) (A) (A) (A) (A) (A) (A) (A)
                 (A) (A) (A) (A) (A) (A) (A) (A) (A) (A) (A) (A)
                 (A) (A) (A) (A) (A) (A) (A) (A) (A) (A) (A) (A)
                 (A) (A) (A) (A) (A) (A) (A) (A) (A) (A) (A) (A)
                 (A) (A) (A) (A) (A) (A) (A) (A) (A) (A) (A) (A)
                 (A) (A) (A) (A) (A) (A) (A) (A) (A) (A) (A) (A)
                 (A) (A) (A) (A) (A) (A) (A) (A) (A) (A) (A) (A)
                 (A) (A) (A) (A) (A) (A) (A) (A) (A) (A) (A) (A)
                 (A) (A) (A) (A) (A) (A) (A) (A) (A) (A) (A) (A)
                 (A) (A) (A) (A) (A) (A) (A) (A) (A) (A) (A) (A)
                 (A) (A) (A) (A) (A) (A) (A) (A) (A) (A) (A) (A)
                 (A) (A) (A) (A) (A) (A) (A) (A) (A) (A) (A) (A)
                 (A) (A) (A) (A) (A) (A) (A) (A) (A) (A) (A) (A)
                 (A) (A) (A) (A) (A) (A) (A) (A) (A) (A) (A) (A)
                 (A) (A) (A) (A) (A) (A) (A) (A) (A) (A) (A) (A)
                 (A) (A) (A) (A) (A) (A) (A) (A) (A) (A) (A) (A)
                 (A) (A) (A) (A) (A) (A) (A) (A) (A) (A) (A) (A)
                 (A) (A) (A) (A) (A) (A) (A) (A) (A) (A) (A) (A)
                 (A) (A)
 The electronic state is 1-A.
 Alpha  occ. eigenvalues --  -19.47887 -19.41287 -19.38068 -19.36076 -19.35865
 Alpha  occ. eigenvalues --  -19.31727 -10.52381 -10.47939 -10.46021 -10.45843
 Alpha  occ. eigenvalues --  -10.44891 -10.44684 -10.43657 -10.43026 -10.39409
 Alpha  occ. eigenvalues --  -10.39144 -10.33937  -1.32987  -1.26274  -1.25787
 Alpha  occ. eigenvalues --   -1.21765  -1.20635  -1.17417  -0.99633  -0.97274
 Alpha  occ. eigenvalues --   -0.93579  -0.89652  -0.87257  -0.85418  -0.83134
 Alpha  occ. eigenvalues --   -0.81424  -0.81244  -0.75464  -0.73839  -0.72333
 Alpha  occ. eigenvalues --   -0.70039  -0.67545  -0.67020  -0.66188  -0.65218
 Alpha  occ. eigenvalues --   -0.64714  -0.62911  -0.62541  -0.61685  -0.61614
 Alpha  occ. eigenvalues --   -0.60276  -0.59063  -0.58944  -0.58642  -0.57792
 Alpha  occ. eigenvalues --   -0.56468  -0.55640  -0.54984  -0.53808  -0.52879
 Alpha  occ. eigenvalues --   -0.52226  -0.51240  -0.50634  -0.49923  -0.48836
 Alpha  occ. eigenvalues --   -0.47886  -0.47097  -0.44586  -0.44037  -0.41585
 Alpha  occ. eigenvalues --   -0.40699
 Alpha virt. eigenvalues --   -0.15508  -0.12095  -0.11779  -0.11453  -0.10059
 Alpha virt. eigenvalues --   -0.09322  -0.09138  -0.07708  -0.07291  -0.06754
 Alpha virt. eigenvalues --   -0.06620  -0.06195  -0.05826  -0.04993  -0.04290
 Alpha virt. eigenvalues --   -0.04047  -0.03618  -0.03328  -0.02940  -0.02614
 Alpha virt. eigenvalues --   -0.02288  -0.01775  -0.01524  -0.01181  -0.00758
 Alpha virt. eigenvalues --   -0.00160   0.00360   0.00965   0.01094   0.01460
 Alpha virt. eigenvalues --    0.02016   0.02194   0.02564   0.02664   0.03165
 Alpha virt. eigenvalues --    0.03525   0.03820   0.04020   0.04203   0.04541
 Alpha virt. eigenvalues --    0.05299   0.05872   0.06481   0.06844   0.06990
 Alpha virt. eigenvalues --    0.07459   0.07843   0.07902   0.08325   0.08683
 Alpha virt. eigenvalues --    0.09116   0.09495   0.09785   0.09905   0.10148
 Alpha virt. eigenvalues --    0.10774   0.10926   0.11343   0.11771   0.11995
 Alpha virt. eigenvalues --    0.12448   0.12719   0.12909   0.13607   0.14015
 Alpha virt. eigenvalues --    0.14176   0.14901   0.15247   0.15962   0.16261
 Alpha virt. eigenvalues --    0.16774   0.16863   0.17017   0.17690   0.18662
 Alpha virt. eigenvalues --    0.18734   0.19261   0.20130   0.20457   0.21034
 Alpha virt. eigenvalues --    0.21147   0.22222   0.22412   0.22693   0.23338
 Alpha virt. eigenvalues --    0.23590   0.24918   0.24982   0.25787   0.25993
 Alpha virt. eigenvalues --    0.26631   0.27298   0.27364   0.27582   0.28176
 Alpha virt. eigenvalues --    0.29216   0.29662   0.30934   0.31548   0.32132
 Alpha virt. eigenvalues --    0.32616   0.33038   0.34226   0.34898   0.35113
 Alpha virt. eigenvalues --    0.36595   0.36895   0.37302   0.37797   0.38418
 Alpha virt. eigenvalues --    0.38703   0.39495   0.41452   0.41807   0.42170
 Alpha virt. eigenvalues --    0.43284   0.43861   0.44584   0.45496   0.45863
 Alpha virt. eigenvalues --    0.47232   0.47546   0.48379   0.49212   0.50633
 Alpha virt. eigenvalues --    0.51284   0.51390   0.52143   0.53324   0.54055
 Alpha virt. eigenvalues --    0.54490   0.54667   0.54980   0.55511   0.55903
 Alpha virt. eigenvalues --    0.56374   0.56971   0.57532   0.58210   0.58454
 Alpha virt. eigenvalues --    0.58709   0.59160   0.60043   0.61356   0.62412
 Alpha virt. eigenvalues --    0.63178   0.64020   0.64046   0.64872   0.65233
 Alpha virt. eigenvalues --    0.66121   0.67629   0.68385   0.69972   0.71252
 Alpha virt. eigenvalues --    0.73196   0.74617   0.76273   0.77098   0.79182
 Alpha virt. eigenvalues --    0.82598   0.84128   0.85019   0.86020   0.87395
 Alpha virt. eigenvalues --    0.90399   0.91039   0.93412   0.95080   0.96946
 Alpha virt. eigenvalues --    0.97487   0.98177   0.98514   1.01091   1.02148
 Alpha virt. eigenvalues --    1.03755   1.04699   1.05333   1.06016   1.07877
 Alpha virt. eigenvalues --    1.10246   1.11333   1.12432   1.13369   1.14166
 Alpha virt. eigenvalues --    1.14948   1.16473   1.16976   1.18556   1.19360
 Alpha virt. eigenvalues --    1.19630   1.21133   1.23352   1.23781   1.26166
 Alpha virt. eigenvalues --    1.26698   1.27359   1.28324   1.30547   1.32675
 Alpha virt. eigenvalues --    1.33246   1.33625   1.34452   1.34828   1.35270
 Alpha virt. eigenvalues --    1.35565   1.36674   1.36883   1.38091   1.40073
 Alpha virt. eigenvalues --    1.41790   1.42333   1.42751   1.43419   1.44735
 Alpha virt. eigenvalues --    1.45015   1.45353   1.45943   1.46930   1.47571
 Alpha virt. eigenvalues --    1.48828   1.49362   1.49628   1.50105   1.51595
 Alpha virt. eigenvalues --    1.52294   1.52639   1.53702   1.54619   1.55447
 Alpha virt. eigenvalues --    1.56515   1.57128   1.57273   1.57766   1.59751
 Alpha virt. eigenvalues --    1.60289   1.60653   1.62593   1.63184   1.63971
 Alpha virt. eigenvalues --    1.65347   1.66206   1.66946   1.68004   1.69208
 Alpha virt. eigenvalues --    1.70846   1.71598   1.72519   1.73100   1.74503
 Alpha virt. eigenvalues --    1.76120   1.77215   1.78298   1.79250   1.79729
 Alpha virt. eigenvalues --    1.82072   1.83258   1.85668   1.86667   1.87393
 Alpha virt. eigenvalues --    1.89375   1.91002   1.92659   1.93566   1.96096
 Alpha virt. eigenvalues --    1.96951   1.97429   1.98218   2.00149   2.00729
 Alpha virt. eigenvalues --    2.03058   2.03918   2.04623   2.05564   2.07006
 Alpha virt. eigenvalues --    2.07291   2.10233   2.12292   2.14164   2.14446
 Alpha virt. eigenvalues --    2.17056   2.17779   2.19880   2.21627   2.25977
 Alpha virt. eigenvalues --    2.26668   2.30777   2.32715   2.34451   2.34972
 Alpha virt. eigenvalues --    2.37190   2.37508   2.38295   2.39468   2.39979
 Alpha virt. eigenvalues --    2.41359   2.41914   2.42696   2.43053   2.43954
 Alpha virt. eigenvalues --    2.44605   2.45805   2.47260   2.47970   2.48504
 Alpha virt. eigenvalues --    2.49221   2.51149   2.52565   2.53063   2.55073
 Alpha virt. eigenvalues --    2.56393   2.57064   2.57607   2.58469   2.60736
 Alpha virt. eigenvalues --    2.63419   2.67024   2.67667   2.69115   2.70708
 Alpha virt. eigenvalues --    2.73079   2.73988   2.75101   2.77226   2.79042
 Alpha virt. eigenvalues --    2.79702   2.80163   2.81207   2.83342   2.83967
 Alpha virt. eigenvalues --    2.86027   2.87699   2.89078   2.91139   2.92159
 Alpha virt. eigenvalues --    2.93189   2.94374   2.95274   2.97268   2.98166
 Alpha virt. eigenvalues --    3.01217   3.01506   3.02868   3.04673   3.05912
 Alpha virt. eigenvalues --    3.07317   3.08174   3.09452   3.10438   3.12478
 Alpha virt. eigenvalues --    3.12898   3.14150   3.15248   3.19005   3.21098
 Alpha virt. eigenvalues --    3.26455   3.29244   3.29793   3.38773   3.48407
 Alpha virt. eigenvalues --    3.56345   3.58340   3.62873   3.66768   3.67944
 Alpha virt. eigenvalues --    3.68149   3.69834   3.70327   3.70823   3.71605
 Alpha virt. eigenvalues --    3.76548   3.80588   3.81131   3.84665   3.85860
 Alpha virt. eigenvalues --    3.89268   3.91857   3.96038   3.97559   3.99785
 Alpha virt. eigenvalues --    4.03083   4.03404   4.06493   4.09303   4.12575
 Alpha virt. eigenvalues --    4.17145   4.26919   4.98058   5.01932   5.03450
 Alpha virt. eigenvalues --    5.04254   5.04768   5.12502   5.17171   5.19317
 Alpha virt. eigenvalues --    5.27652   5.31278   5.32424   5.36965   5.40144
 Alpha virt. eigenvalues --    5.51410   5.56623   5.57472   5.63002   5.79341
 Alpha virt. eigenvalues --   23.68825  23.74760  23.75638  23.81505  23.82711
 Alpha virt. eigenvalues --   23.83634  23.86554  23.88495  23.90002  23.91832
 Alpha virt. eigenvalues --   23.94268  49.88742  49.91798  49.93829  49.97767
 Alpha virt. eigenvalues --   50.00048  50.01420
          Condensed to atoms (all electrons):
               1          2          3          4          5          6
     1  C    8.261370  -3.558182   1.657361  -0.988403  -0.285455   0.143022
     2  C   -3.558182  15.942547  -6.200716   0.683772   2.138099  -1.600787
     3  C    1.657361  -6.200716  16.974903  -4.980429  -1.590030  -0.431933
     4  C   -0.988403   0.683772  -4.980429  18.659917  -9.462248   2.396951
     5  C   -0.285455   2.138099  -1.590030  -9.462248  23.486129  -7.436305
     6  C    0.143022  -1.600787  -0.431933   2.396951  -7.436305  13.717737
     7  O    0.025081   0.094723   0.051856  -0.104205  -0.199945   0.488520
     8  O    0.146572  -0.308043   0.302985  -0.109642  -0.156650  -0.122867
     9  O    0.137325  -0.396624   0.282013  -0.154692   0.012296  -0.070469
    10  O   -0.287102   0.235515   0.062058   0.113493   0.276007  -0.607777
    11  H    0.378848   0.076451  -0.085457   0.007762   0.036105  -0.004908
    12  H    0.418094  -0.031466   0.000646   0.004576   0.006859  -0.016933
    13  H    0.002944   0.413443  -0.024148  -0.023850   0.063755  -0.054040
    14  H    0.000917  -0.079477   0.466746  -0.084055   0.014048   0.011405
    15  H    0.013685   0.010239   0.014968   0.397728  -0.085410   0.003623
    16  H    0.033102  -0.062845   0.042285  -0.112803   0.359641   0.051436
    17  H    0.019862   0.013157   0.024953  -0.061197   0.121750   0.236067
    18  O    0.011183  -0.068146  -0.025484   0.018677   0.378358  -0.221957
    19  C   -0.225839   0.163163  -0.014413  -0.084515   0.129560  -0.234136
    20  H    0.024036  -0.005189  -0.000311   0.000838  -0.017964   0.018039
    21  H   -0.002948   0.006645   0.002298  -0.002689   0.019878  -0.000475
    22  H   -0.026294   0.018225  -0.013567   0.034398  -0.031759  -0.012852
    23  C    0.013312  -0.053194   0.028366   0.286903  -0.582448   0.020389
    24  H    0.001819  -0.003678  -0.008461  -0.014486  -0.049788   0.050302
    25  H   -0.000977  -0.003295   0.035926   0.085773  -0.081997  -0.022108
    26  H    0.000172   0.000791  -0.002846  -0.006387   0.043661  -0.003914
    27  C    0.028079  -0.066000   0.077963  -0.334654  -0.106148  -0.007796
    28  H    0.004198  -0.016584   0.028354  -0.063766  -0.021166  -0.001413
    29  H   -0.000406   0.007013  -0.036138  -0.018076   0.062831   0.010014
    30  H   -0.000003   0.000069  -0.001389   0.057016  -0.021914   0.002382
    31  C    0.200929  -0.605685  -0.223524   0.338889  -0.554871   0.110748
    32  O   -0.003201  -0.023294   0.168069  -0.112306   0.012822  -0.013968
    33  C   -0.003015  -0.137202   0.126810  -0.114874  -0.061464   0.016831
    34  H   -0.000642   0.001783  -0.032825   0.010689  -0.000821   0.000105
    35  H    0.000603  -0.003559   0.024674  -0.005735   0.003740  -0.000446
    36  H    0.000249   0.001916   0.001109  -0.004415  -0.000946   0.000034
               7          8          9         10         11         12
     1  C    0.025081   0.146572   0.137325  -0.287102   0.378848   0.418094
     2  C    0.094723  -0.308043  -0.396624   0.235515   0.076451  -0.031466
     3  C    0.051856   0.302985   0.282013   0.062058  -0.085457   0.000646
     4  C   -0.104205  -0.109642  -0.154692   0.113493   0.007762   0.004576
     5  C   -0.199945  -0.156650   0.012296   0.276007   0.036105   0.006859
     6  C    0.488520  -0.122867  -0.070469  -0.607777  -0.004908  -0.016933
     7  O    7.618366   0.020263   0.007209  -0.103012   0.008184  -0.000839
     8  O    0.020263   8.204541   0.012559  -0.020306  -0.008380   0.001212
     9  O    0.007209   0.012559   8.412363  -0.001129  -0.001170  -0.000616
    10  O   -0.103012  -0.020306  -0.001129   8.370889  -0.059711  -0.021781
    11  H    0.008184  -0.008380  -0.001170  -0.059711   0.403560  -0.021584
    12  H   -0.000839   0.001212  -0.000616  -0.021781  -0.021584   0.404889
    13  H   -0.044706   0.001085  -0.001247   0.001025   0.000954  -0.003007
    14  H    0.008397   0.010836  -0.029761  -0.001232   0.000544  -0.000022
    15  H   -0.000680  -0.041982   0.004134   0.001414  -0.000421  -0.000004
    16  H    0.009933   0.007856   0.000322  -0.011659  -0.000221  -0.000048
    17  H   -0.045149   0.001134   0.000399  -0.011584  -0.000028   0.000092
    18  O    0.025235   0.016611   0.001618   0.008043  -0.000096   0.000073
    19  C    0.016575  -0.011963  -0.007598   0.077895   0.014208   0.004596
    20  H    0.000163  -0.000404   0.000018  -0.040379   0.000317  -0.000258
    21  H   -0.000996  -0.000410  -0.000068  -0.037988  -0.001819   0.001612
    22  H    0.001725   0.007271  -0.000352  -0.039062   0.005946  -0.000551
    23  C    0.001156   0.000819   0.001152  -0.003323  -0.000129   0.000006
    24  H    0.000465   0.001574   0.000012  -0.000591  -0.000004  -0.000000
    25  H   -0.000490  -0.004571   0.000014   0.000438  -0.000000   0.000000
    26  H   -0.000133   0.000094   0.000009   0.000084  -0.000001  -0.000000
    27  C    0.001621   0.146679  -0.001229  -0.013573  -0.002655  -0.000320
    28  H   -0.000047  -0.031413   0.000273   0.000071  -0.000120   0.000000
    29  H    0.000009  -0.061436  -0.000117   0.000584  -0.000025  -0.000000
    30  H    0.000045  -0.066798  -0.000570  -0.000787  -0.000083  -0.000000
    31  C    0.004975   0.019636   0.079487   0.000419  -0.011995  -0.000929
    32  O    0.000517   0.010069  -0.204895   0.000064   0.000084   0.000007
    33  C   -0.002559  -0.009686  -0.287529   0.004170  -0.005864   0.000228
    34  H    0.000003   0.000101  -0.004585  -0.000006   0.000026   0.000000
    35  H    0.000010  -0.001012  -0.000553  -0.000012  -0.000065  -0.000002
    36  H   -0.000000   0.000022   0.016029  -0.000001  -0.000000  -0.000000
              13         14         15         16         17         18
     1  C    0.002944   0.000917   0.013685   0.033102   0.019862   0.011183
     2  C    0.413443  -0.079477   0.010239  -0.062845   0.013157  -0.068146
     3  C   -0.024148   0.466746   0.014968   0.042285   0.024953  -0.025484
     4  C   -0.023850  -0.084055   0.397728  -0.112803  -0.061197   0.018677
     5  C    0.063755   0.014048  -0.085410   0.359641   0.121750   0.378358
     6  C   -0.054040   0.011405   0.003623   0.051436   0.236067  -0.221957
     7  O   -0.044706   0.008397  -0.000680   0.009933  -0.045149   0.025235
     8  O    0.001085   0.010836  -0.041982   0.007856   0.001134   0.016611
     9  O   -0.001247  -0.029761   0.004134   0.000322   0.000399   0.001618
    10  O    0.001025  -0.001232   0.001414  -0.011659  -0.011584   0.008043
    11  H    0.000954   0.000544  -0.000421  -0.000221  -0.000028  -0.000096
    12  H   -0.003007  -0.000022  -0.000004  -0.000048   0.000092   0.000073
    13  H    0.395370  -0.002982   0.000052   0.000052   0.000371   0.000312
    14  H   -0.002982   0.415651  -0.003001  -0.000109  -0.000212   0.003866
    15  H    0.000052  -0.003001   0.416925  -0.003289  -0.000024   0.007839
    16  H    0.000052  -0.000109  -0.003289   0.480516  -0.002820  -0.037385
    17  H    0.000371  -0.000212  -0.000024  -0.002820   0.412878   0.008495
    18  O    0.000312   0.003866   0.007839  -0.037385   0.008495   7.862567
    19  C   -0.002416  -0.000611  -0.000135   0.004465  -0.005329  -0.002374
    20  H    0.000024   0.000001   0.000001   0.000030   0.001359  -0.000005
    21  H   -0.000001  -0.000002  -0.000006  -0.000217  -0.000011   0.000034
    22  H   -0.000054   0.000014   0.000007  -0.001178  -0.000214  -0.000173
    23  C    0.000470  -0.000513   0.003559   0.012864  -0.000866   0.141978
    24  H    0.000000   0.000024   0.000371   0.013446  -0.000605  -0.040966
    25  H   -0.000002  -0.000280  -0.000034  -0.004572   0.000100  -0.030621
    26  H   -0.000000  -0.000012  -0.000042   0.000050  -0.000012  -0.061348
    27  C    0.000150   0.001028  -0.008978   0.003567   0.000371  -0.001509
    28  H    0.000012  -0.000340   0.010082   0.000148  -0.000003   0.000610
    29  H   -0.000002   0.000101  -0.002968   0.000308   0.000010  -0.001914
    30  H   -0.000001   0.000007   0.000107  -0.000080  -0.000005   0.000125
    31  C    0.002454   0.002028   0.000402   0.002970  -0.000528  -0.001514
    32  O   -0.000086  -0.002214  -0.001718  -0.000039   0.000031  -0.001691
    33  C   -0.002023  -0.010475   0.000633   0.000266  -0.000048  -0.002914
    34  H   -0.000019   0.000096  -0.000029  -0.000000  -0.000000   0.000000
    35  H    0.000002  -0.000030  -0.000023  -0.000000  -0.000000   0.000000
    36  H    0.000000  -0.000000   0.000032   0.000000   0.000000  -0.000000
              19         20         21         22         23         24
     1  C   -0.225839   0.024036  -0.002948  -0.026294   0.013312   0.001819
     2  C    0.163163  -0.005189   0.006645   0.018225  -0.053194  -0.003678
     3  C   -0.014413  -0.000311   0.002298  -0.013567   0.028366  -0.008461
     4  C   -0.084515   0.000838  -0.002689   0.034398   0.286903  -0.014486
     5  C    0.129560  -0.017964   0.019878  -0.031759  -0.582448  -0.049788
     6  C   -0.234136   0.018039  -0.000475  -0.012852   0.020389   0.050302
     7  O    0.016575   0.000163  -0.000996   0.001725   0.001156   0.000465
     8  O   -0.011963  -0.000404  -0.000410   0.007271   0.000819   0.001574
     9  O   -0.007598   0.000018  -0.000068  -0.000352   0.001152   0.000012
    10  O    0.077895  -0.040379  -0.037988  -0.039062  -0.003323  -0.000591
    11  H    0.014208   0.000317  -0.001819   0.005946  -0.000129  -0.000004
    12  H    0.004596  -0.000258   0.001612  -0.000551   0.000006  -0.000000
    13  H   -0.002416   0.000024  -0.000001  -0.000054   0.000470   0.000000
    14  H   -0.000611   0.000001  -0.000002   0.000014  -0.000513   0.000024
    15  H   -0.000135   0.000001  -0.000006   0.000007   0.003559   0.000371
    16  H    0.004465   0.000030  -0.000217  -0.001178   0.012864   0.013446
    17  H   -0.005329   0.001359  -0.000011  -0.000214  -0.000866  -0.000605
    18  O   -0.002374  -0.000005   0.000034  -0.000173   0.141978  -0.040966
    19  C    5.320275   0.391596   0.393195   0.418466  -0.012209  -0.000233
    20  H    0.391596   0.442944  -0.013296  -0.017809  -0.000437  -0.000052
    21  H    0.393195  -0.013296   0.436570  -0.020794   0.000361  -0.000000
    22  H    0.418466  -0.017809  -0.020794   0.412670  -0.001277   0.000005
    23  C   -0.012209  -0.000437   0.000361  -0.001277   5.194101   0.410721
    24  H   -0.000233  -0.000052  -0.000000   0.000005   0.410721   0.517173
    25  H    0.000084   0.000003   0.000000  -0.000014   0.399888  -0.039385
    26  H   -0.000023  -0.000000   0.000000  -0.000000   0.406603  -0.018556
    27  C   -0.009117  -0.000744  -0.000326   0.010921  -0.007430   0.003167
    28  H   -0.000398  -0.000002   0.000002  -0.000086   0.001606   0.000043
    29  H   -0.000502  -0.000003  -0.000027  -0.000142  -0.004860  -0.000134
    30  H   -0.001059  -0.000008   0.000002   0.000418   0.000314   0.000006
    31  C   -0.010211  -0.000134  -0.000028  -0.000777   0.014903   0.000208
    32  O    0.000608   0.000002   0.000001   0.000043   0.000257  -0.000010
    33  C    0.001581  -0.000036  -0.000017  -0.000174  -0.000509   0.000003
    34  H   -0.000005   0.000000  -0.000000   0.000000   0.000004  -0.000000
    35  H   -0.000036   0.000000   0.000000  -0.000001  -0.000005   0.000000
[...]
 ,-0.00024822,-0.00030218,0.00010459,0.00001712,0.00006513,0.00012495,0
 .00013649,-0.00008929,0.00001211,0.00003545,-0.00001442,-0.00110835,0.
 00043820,-0.00131651,0.00008061,0.00104885,-0.00089762,0.00028908,0.00
 002121,0.00029591,0.00045619,-0.00004050,0.00026245,-0.29907647,0.2179
 4572,0.67778721,0.00076835,0.00039371,0.00100370,0.00230596,0.00147207
 ,0.00054595,0.00138250,0.01457903,0.01295773,-0.00160802,-0.00374777,-
 0.00207251,-0.00073450,0.00204111,-0.00024258,0.00017704,-0.00061885,0
 .00129960,-0.00148354,-0.00133790,-0.00231174,0.00129523,0.00171250,-0
 .00172127,-0.09963573,-0.03617604,0.03635973,-0.00062367,0.00014191,-0
 .00136727,0.00066799,-0.00036808,0.00034893,-0.00008120,-0.00007837,-0
 .00014404,0.00029515,0.00053954,-0.00034992,-0.00059867,-0.00226860,-0
 .00162137,-0.00215684,-0.00062947,-0.00280043,-0.00022276,-0.00037685,
 -0.00046712,-0.00006384,0.00009269,-0.00016312,0.00143237,-0.00034018,
 -0.00093789,0.00037905,-0.00067146,0.00046679,-0.00000308,0.00004828,-
 0.00004405,0.00003494,0.00005450,0.00000948,-0.00003415,0.00002189,0.0
 0003705,-0.00087177,-0.00049457,0.00073583,0.00011081,0.00011337,-0.00
 004862,-0.00002765,0.00021835,-0.00014346,0.00004130,-0.00006313,-0.00
 010642,-0.00175779,-0.00198100,0.00074030,-0.00001574,0.00046722,-0.00
 035103,0.00028672,0.00016914,-0.00012954,0.00024144,0.00018590,0.00003
 438,-0.46468908,0.07746427,0.33009049,0.56438048,-0.00041411,-0.000398
 24,0.00021293,-0.00031663,0.00208669,0.00089128,0.00216224,0.00017162,
 0.00437066,0.00029116,-0.00159534,-0.00015292,-0.00015599,0.00010641,0
 .00057272,0.00040065,-0.00044772,0.00012035,-0.00000093,0.00027589,-0.
 00036482,0.00003053,0.00184668,-0.00045048,-0.03282744,0.02062677,0.01
 263878,-0.00045256,0.00031016,-0.00028727,0.00016586,-0.00021705,-0.00
 001354,-0.00019341,0.00004795,-0.00011195,-0.00007532,-0.00005671,-0.0
 0010823,0.00018755,0.00109161,-0.00039264,-0.00070807,-0.00067965,-0.0
 0012108,-0.00006745,-0.00003524,-0.00013462,-0.00007244,-0.00000142,0.
 00000901,-0.00003993,0.00013494,-0.00036146,0.00016263,-0.00034398,0.0
 0023114,0.00000916,0.00003317,-0.00001755,0.00000096,0.00001366,-0.000
 00843,-0.00001527,-0.00000986,-0.00001382,-0.00012559,-0.00000932,0.00
 030827,-0.00006073,-0.00000131,-0.00006698,0.00002240,-0.00006769,0.00
 006845,0.00002369,0.00001957,0.00003070,-0.00109700,-0.00106410,0.0004
 2012,0.00034977,0.00015965,-0.00036375,0.00032103,0.00016656,0.0000969
 2,0.00003633,0.00014467,-0.00005291,0.06669781,-0.11526220,-0.08255487
 ,-0.05442477,0.08290628,-0.00060574,-0.00043363,-0.00086854,-0.0018078
 7,0.00003135,0.00075532,0.00029115,-0.00256304,-0.00938221,0.00127518,
 -0.00092513,-0.00539983,-0.00219364,-0.00012060,0.00188850,0.00042392,
 0.00013846,-0.00270112,0.00120092,0.00110105,0.00201034,-0.00152950,-0
 .00046280,0.00130462,0.04303211,0.01562839,0.02269672,0.00005022,0.000
 14067,0.00112427,-0.00030244,0.00014639,-0.00041638,-0.00005786,0.0000
 2860,0.00003750,-0.00045613,-0.00042795,0.00006835,0.00038757,0.002385
 41,0.00076930,-0.00292187,-0.00110358,0.00105178,0.00003067,0.00010378
 ,0.00011264,-0.00033446,-0.00025064,0.00034649,-0.00029428,-0.00022319
 ,0.00018784,-0.00006783,0.00031846,-0.00014786,0.00006097,-0.00002654,
 0.00004821,-0.00005284,-0.00007903,0.00000710,0.00023040,-0.00003637,-
 0.00001469,0.00043878,0.00037885,0.00008682,-0.00012369,-0.00005286,-0
 .00003060,-0.00012368,-0.00013849,0.00015567,-0.00003268,-0.00003047,0
 .00001493,0.00201049,0.00127993,0.00000914,-0.00037094,-0.00112802,0.0
 0034643,-0.00048209,-0.00017449,-0.00005323,-0.00051397,-0.00006603,-0
 .00021792,0.31231162,-0.08922983,-0.37986851,-0.38842834,0.09581698,0.
 38875267,0.00009252,-0.00007321,0.00013184,0.00105363,-0.00051858,-0.0
 0123477,-0.00470209,-0.00334283,0.00127168,-0.00008711,-0.00029485,0.0
 0077398,0.00025965,0.00019224,-0.00015002,0.00015194,-0.00032619,0.000
 69565,-0.00099835,-0.00071971,-0.00074040,0.00021286,0.00042563,-0.000
 13879,-0.00336069,-0.03034857,-0.02699368,-0.00011456,0.00015656,-0.00
 015075,-0.00001213,-0.00002021,0.00002068,-0.00003026,0.00002936,-0.00
 002493,0.00004046,0.00004678,0.00000284,-0.00025725,-0.00039949,-0.000
 18745,0.00001583,0.00004596,-0.00064535,-0.00000892,-0.00003081,-0.000
 05773,0.00003265,0.00005453,-0.00007640,0.00010410,0.00004087,-0.00007
 710,0.00003183,-0.00011229,0.00008569,-0.00000394,0.00001198,-0.000008
 72,0.00000221,0.00001528,-0.00000923,-0.00003452,0.00000301,-0.0000118
 1,-0.00011691,-0.00006770,0.00005144,0.00002462,0.00001233,-0.00000291
 ,0.00001568,0.00003041,-0.00003130,0.00000782,-0.00000004,-0.00000892,
 -0.00027929,-0.00021626,-0.00004253,0.00006169,0.00014256,-0.00006709,
 0.00004995,0.00005381,0.00001220,0.00004011,0.00004018,-0.00002329,-0.
 07978119,0.00204167,-0.00529513,-0.00236314,0.01656285,0.03805847,0.60
 516983,0.00011150,0.00004792,0.00007849,0.00023893,-0.00009140,-0.0005
 6133,-0.00254889,0.00335413,0.00082428,-0.00022005,-0.00112620,-0.0007
 0193,-0.00018303,0.00049397,-0.00009402,0.00019461,-0.00011027,0.00010
 823,-0.00034358,-0.00031627,-0.00017352,0.00002141,0.00037678,-0.00010
 940,-0.01197591,-0.01727534,-0.02549195,-0.00015207,0.00007267,-0.0001
 0880,0.00010915,-0.00000971,0.00004546,-0.00003849,-0.00000800,-0.0000
 3445,-0.00000929,0.00000773,-0.00000287,0.00045803,0.00000667,0.000150
 87,-0.00013330,0.00000976,0.00020384,-0.00007060,-0.00009162,-0.000107
 24,-0.00001637,-0.00000779,0.00000236,0.00016422,-0.00009564,-0.000160
 07,0.00007301,-0.00010027,0.00008793,0.00000936,0.00000623,-0.00000214
 ,0.00000120,0.00000402,0.00000124,0.00001429,0.00000053,0.00000441,-0.
 00008601,-0.00002952,0.00013110,-0.00000730,0.00001143,-0.00001583,-0.
 00000632,0.00001024,-0.00000129,0.00000759,-0.00000722,-0.00000878,-0.
 00019396,-0.00021300,0.00011835,0.00009082,-0.00007160,-0.00006029,0.0
 0005975,0.00003442,-0.00000553,-0.00004747,0.00001696,-0.00003846,0.00
 210021,-0.14545517,-0.06429098,0.00113549,0.01347110,-0.01722197,0.031
 70718,0.53659058,-0.00000415,-0.00004637,0.00002628,0.00021872,0.00002
 941,0.00018985,0.00193696,0.00081106,0.00389545,0.00035237,0.00022677,
 0.00016470,0.00006210,-0.00000194,0.00021022,0.00016553,-0.00011289,-0
 .00001301,-0.00013309,0.00007263,-0.00013311,-0.00016176,0.00021398,-0
 .00005174,-0.00550383,-0.01422438,-0.00287753,-0.00014585,0.00011551,-
 0.00004118,0.00007272,-0.00002338,-0.00002243,-0.00003212,-0.00000855,
 -0.00002731,0.00004811,0.00006799,-0.00001951,-0.00038453,-0.00027121,
 -0.00044462,0.00009124,0.00004465,0.00014901,-0.00000491,0.00002443,-0
 .00001247,-0.00003253,0.00000264,-0.00000198,-0.00001115,-0.00005309,-
 0.00013656,0.00005356,-0.00007143,0.00006616,0.00000775,0.00000527,-0.
 00000243,-0.00000440,-0.00000441,-0.00000081,0.00003121,0.00000121,0.0
 0000109,-0.00001030,0.00002447,0.00009153,-0.00001847,0.00000131,-0.00
 001850,-0.00000879,-0.00001888,0.00001547,0.00000223,-0.00000202,0.000
 00460,0.00000354,-0.00006524,0.00011689,0.00004961,-0.00001930,0.00005
 441,-0.00000113,-0.00000429,-0.00002049,-0.00000741,0.00001291,-0.0000
 0892,-0.00439423,-0.06398450,-0.16498920,0.01913010,-0.02720057,-0.016
 53112,-0.00341587,-0.02216687,0.51622002,-0.00001227,-0.00002559,-0.00
 008850,0.00010054,-0.00001111,-0.00007297,0.00002394,0.00025450,0.0001
 7334,-0.00005456,-0.00002930,-0.00001173,0.00001877,0.00003324,-0.0000
 1607,0.00006568,-0.00001246,-0.00004039,-0.00004742,0.00000409,0.00005
 491,-0.00002679,-0.00003165,-0.00002164,-0.00086315,-0.00159349,-0.000
 69528,-0.00002510,0.00003346,0.00007635,0.00002549,0.00001402,-0.00003
 505,-0.00002055,-0.00001569,-0.00001333,0.00001422,-0.00003822,-0.0000
 0650,-0.00002037,-0.00003204,0.00002679,-0.00000671,-0.00000344,0.0000
 1527,-0.00000761,-0.00000421,-0.00000780,-0.00000623,-0.00000381,0.000
 00532,-0.00001581,-0.00001532,-0.00000037,-0.00000618,0.00001794,-0.00
 000784,0.00000174,-0.00000149,0.00000287,-0.00000394,-0.00000403,-0.00
 000333,0.00001259,-0.00000098,0.00000036,0.00000452,0.00000127,0.00000
 034,-0.00000239,0.00000039,-0.00000100,-0.00000199,-0.00000264,0.00000
 190,0.00000034,0.00000057,0.00000237,-0.00001058,-0.00000495,0.0000340
 1,-0.00002245,-0.00000399,0.00001424,-0.00000271,-0.00001057,-0.000008
 16,0.00001200,-0.00000132,0.00000960,-0.00351166,0.00143316,0.00279487
 ,0.00061504,0.00165137,0.00075387,-0.04944972,-0.02849527,0.03903676,0
 .05126215,-0.00001609,0.00000567,0.00001024,0.00007290,0.00005073,-0.0
 0001074,0.00031095,0.00000387,0.00042346,0.00007943,0.00001847,0.00006
 028,0.00000245,0.00000143,0.00003285,0.00000207,0.00000449,-0.00002548
 ,-0.00001775,-0.00001884,0.00000237,-0.00001036,0.00008497,-0.00001218
 ,-0.00034062,-0.00142962,0.00058286,0.00000558,-0.00000377,0.00000293,
 0.00000223,-0.00000848,0.00001116,-0.00000336,0.00000641,0.00000024,-0
 .00002693,-0.00000978,-0.00001562,-0.00005835,-0.00003541,-0.00008896,
 0.00003147,0.00000487,0.00004910,-0.00000373,-0.00000276,-0.00000390,-
 0.00000500,-0.00000144,0.00000149,-0.00000366,-0.00000205,-0.00000681,
 -0.00000131,-0.00000422,0.00000368,0.00000082,-0.00000018,0.00000004,0
 .00000009,0.00000054,0.00000085,0.00000037,-0.00000262,-0.00000030,0.0
 0000251,0.00000472,0.00000648,-0.00000290,-0.00000217,-0.00000233,-0.0
 0000048,-0.00000393,0.00000486,0.00000017,0.00000055,-0.00000051,-0.00
 003245,-0.00005808,0.00003472,0.00002557,-0.00003642,-0.00000868,0.000
 00832,0.00001939,0.00000542,-0.00002612,0.00000893,-0.00002601,0.00291
 663,0.01583878,-0.01966845,0.00271693,-0.00508605,-0.00164122,-0.02786
 135,-0.11417769,0.11729250,0.02694954,0.12253693,-0.00004192,-0.000020
 27,-0.00005588,0.00003311,-0.00001535,-0.00007907,0.00011655,-0.000941
 09,0.00018339,0.00008357,0.00027554,0.00017471,0.00000299,-0.00008219,
 0.00006929,0.00000174,0.00001624,-0.00006412,0.00000449,0.00000365,0.0
 0006923,-0.00004596,-0.00006840,0.00001711,0.00005417,-0.00083724,0.00
 203930,0.00001977,-0.00000267,0.00006952,-0.00000645,0.00001495,-0.000
 02752,-0.00000703,-0.00000177,0.00000128,-0.00002852,-0.00004476,-0.00
 000166,-0.00007664,0.00003093,-0.00007732,0.00002449,-0.00000158,0.000
 05906,0.00001274,0.00001897,0.00002314,-0.00000577,-0.00000433,0.00000
 612,-0.00003735,0.00000078,0.00002188,-0.00001639,0.00003207,-0.000020
 12,0.00000054,-0.00000328,0.00000274,-0.00000228,-0.00000327,-0.000001
 01,0.00000639,-0.00000117,0.00000048,0.00002539,0.00001507,-0.00001904
 ,-0.00000213,-0.00000359,0.00000089,-0.00000209,-0.00000623,0.00000415
 ,-0.00000197,0.00000066,0.00000141,0.00006012,0.00005039,-0.00000155,-
 0.00002314,-0.00001260,0.00002770,-0.00001689,-0.00001044,-0.00000319,
 0.00000104,-0.00000450,0.00000142,0.00573896,0.01695152,-0.02255710,-0
 .00001240,-0.00472804,-0.00076427,0.03829385,0.11792115,-0.24290616,-0
 .04417638,-0.12696450,0.26216358,0.00000286,-0.00004492,-0.00004332,0.
 00007975,0.00002987,-0.00000479,0.00031376,0.00022298,0.00047969,-0.00
 006233,0.00004519,0.00005047,0.00001923,0.00002454,-0.00000082,0.00006
 350,-0.00000988,-0.00001851,-0.00003956,0.00000151,0.00001903,-0.00006
 959,-0.00008040,0.00003272,-0.00092947,-0.00122182,-0.00122612,-0.0000
 3312,0.00003914,0.00005139,0.00002971,-0.00001902,-0.00004210,-0.00001
 451,-0.00000733,-0.00000770,0.00000280,-0.00000563,-0.00000453,-0.0000
 5599,-0.00012298,-0.00008781,0.00000790,0.00002079,0.00000084,-0.00000
 186,0.00000139,-0.00000279,-0.00000731,-0.00000026,0.00000224,-0.00000
 010,-0.00002798,-0.00001794,0.00000007,0.00000858,-0.00000141,0.000001
 53,0.00000231,0.00000137,-0.00000595,-0.00000644,-0.00000310,0.0000167
 8,-0.00000066,-0.00000588,-0.00000210,0.00000304,0.00000438,0.00000090
 ,0.00000252,-0.00000035,-0.00000543,0.00000067,-0.00000051,-0.00000080
 ,-0.00000226,-0.00000045,0.00009844,0.00007112,-0.00001265,-0.00005497
 ,0.00003129,0.00005922,-0.00003149,-0.00002657,-0.00001839,0.00003179,
 -0.00000040,0.00001074,-0.00273195,-0.00048031,0.00330379,0.00166527,0
 .00104503,-0.00009672,-0.20208168,0.13334284,-0.02981378,0.00416156,-0
 .00479680,0.00080086,0.21604594,-0.00002866,-0.00010720,-0.00011480,0.
 00002794,-0.00002561,-0.00002839,-0.00028933,0.00040041,-0.00039833,0.
 00004752,-0.00018706,-0.00015116,-0.00004481,0.00003575,-0.00001534,0.
 00007416,-0.00001900,-0.00008515,-0.00000074,0.00003267,0.00009371,-0.
 00008476,0.00003064,0.00019647,-0.00185993,0.00090509,-0.00087206,-0.0
 0001416,0.00005899,0.00011672,-0.00004756,-0.00003559,-0.00008915,-0.0
 0001589,0.00000481,-0.00000265,0.00000196,-0.00002946,0.00000493,0.000
 04136,0.00015205,0.00013820,-0.00003107,0.00000166,0.00010995,-0.00000
 970,-0.00001028,-0.00001199,-0.00001233,-0.00000647,0.00000958,-0.0000
 3943,0.00000919,0.00003604,-0.00002289,0.00002794,-0.00001864,0.000002
 44,0.00000196,0.00000328,-0.00000666,-0.00000303,-0.00000482,0.0000052
 0,-0.00000279,-0.00001095,0.00002618,0.00001700,-0.00001822,-0.0000042
 9,-0.00000308,0.00000069,-0.00000205,-0.00000717,0.00000572,-0.0000018
 1,0.00000063,0.00000327,0.00009583,0.00012047,-0.00008782,-0.00000848,
 -0.00003083,-0.00001883,-0.00001384,-0.00000691,0.00001952,-0.00000780
 ,0.00000956,-0.00000972,0.01784180,-0.01370748,0.00700119,-0.00129306,
 0.00003254,-0.00294820,0.13289949,-0.15869520,0.02008675,0.01176039,-0
 .01024255,0.00103146,-0.14664786,0.16862839,-0.00000612,-0.00003771,0.
 00002971,-0.00004912,0.00005440,0.00005231,-0.00002246,0.00056709,-0.0
 0028035,0.00011090,-0.00043646,-0.00013918,-0.00008540,0.00003286,-0.0
 0001108,0.00000307,-0.00002963,-0.00002168,0.00003900,0.00002190,0.000
 00050,-0.00001953,0.00038063,0.00021234,-0.00097815,0.00119793,-0.0003
 5300,-0.00000509,0.00003013,-0.00002601,-0.00004253,-0.00005117,0.0000
 1293,0.00000591,0.00002517,0.00001017,-0.00001427,0.00000926,-0.000000
 35,0.00010960,0.00011235,0.00003957,-0.00002013,0.00001355,0.00014551,
 -0.00001690,-0.00001688,-0.00002904,-0.00000420,-0.00000412,0.00000344
 ,-0.00001068,0.00004413,0.00001864,-0.00000401,-0.00003365,0.00001703,
 -0.00000003,0.00000670,-0.00000230,-0.00000122,0.00000406,-0.00000119,
 -0.00001664,-0.00000742,-0.00001279,0.00000859,0.00000637,-0.00000004,
 -0.00000521,-0.00000458,-0.00000247,0.00000538,-0.00000500,0.00000744,
 -0.00000027,0.00000217,0.00000034,-0.00004713,-0.00005018,-0.00003373,
 0.00010170,-0.00006574,-0.00002651,0.00003211,0.00006093,0.00004986,-0
 .00006838,0.00002607,-0.00008527,0.02365985,-0.01815087,0.00581249,-0.
 00093815,-0.00029820,-0.00680770,-0.02878358,0.01945301,-0.04428482,-0
 .02184035,0.01780871,-0.00246102,0.02976103,-0.02203558,0.05000843,0.0
 0001116,0.00003915,0.00004400,-0.00001905,0.00002794,0.00006672,0.0005
 2960,0.00024748,0.00052319,-0.00000900,-0.00000029,0.00000045,-0.00000
 357,-0.00000212,-0.00000420,-0.00002157,0.00000723,0.00001433,0.000027
 41,0.00002627,-0.00001313,0.00004836,0.00006075,-0.00006399,0.00104705
 ,0.00040023,0.00054067,-0.00000031,-0.00001560,-0.00004593,0.00001282,
 0.00000994,0.00003312,0.00000698,-0.00000123,0.00000141,0.00000279,0.0
 0001410,-0.00000205,-0.00001675,-0.00008498,-0.00009574,0.00000251,-0.
 00000901,-0.00001835,-0.00000107,-0.00000282,-0.00000186,0.00000309,0.
 00000066,-0.00000236,0.00000788,0.00000638,-0.00000727,0.00000888,-0.0
 0001559,0.00000922,-0.00000045,-0.00000023,-0.00000141,0.00000297,0.00
 000245,0.00000185,-0.00000498,0.00000036,0.00000366,-0.00000555,-0.000
 00401,0.00000619,-0.00000116,-0.00000027,-0.00000118,0.00000310,0.0000
 0004,-0.00000032,0.00000134,0.00000137,0.00000019,-0.00008602,-0.00007
 072,0.00004492,0.00002892,-0.00001616,-0.00002756,0.00002358,0.0000135
 1,0.00000411,-0.00000999,-0.00000121,-0.00000289,0.00063067,0.00274103
 ,0.00096856,0.00089152,0.00092661,0.00024022,-0.26368564,-0.12531168,-
 0.01717421,-0.00220040,0.00007921,-0.00077745,-0.01641360,-0.01233717,
 -0.00085756,0.27918849,0.00002483,-0.00003845,0.00000543,0.00022378,-0
 .00005890,-0.00022530,-0.00101773,0.00042427,0.00006191,-0.00006529,-0
 .00028586,-0.00002127,0.00001028,0.00014140,-0.00005462,0.00007721,-0.
 00006706,0.00010912,-0.00020168,-0.00014565,-0.00012833,0.00000470,0.0
 0008266,-0.00001772,-0.00040644,-0.00294645,-0.00469133,-0.00004678,0.
 00005129,-0.00001349,0.00000734,-0.00002602,-0.00002127,-0.00001523,0.
 00000377,-0.00001045,0.00000812,0.00001484,0.00000188,-0.00003131,-0.0
 0002063,0.00003290,-0.00000789,0.00001850,-0.00005398,-0.00001616,-0.0
 0002498,-0.00003158,-0.00000258,0.00000775,-0.00001049,0.00004931,-0.0
 0002201,-0.00003802,0.00001162,-0.00002515,0.00002269,0.00000115,0.000
 00404,-0.00000104,-0.00000218,0.00000054,-0.00000264,0.00000203,-0.000
 00029,-0.00000534,-0.00003471,-0.00001501,0.00003044,0.00000486,0.0000
 0495,-0.00000234,-0.00000210,0.00000826,-0.00000538,0.00000146,-0.0000
 0309,-0.00000452,-0.00002417,-0.00003251,-0.00000037,0.00000252,0.0000
 2310,-0.00000551,0.00000312,0.00000435,-0.00000143,0.00001216,0.000014
 47,-0.00000663,-0.01975655,-0.01132890,0.00235129,0.00130220,0.0016299
 5,0.00178578,-0.12018058,-0.11663319,-0.01075417,-0.01181239,-0.007464
 69,-0.00260610,0.01860869,0.01264996,0.00136978,0.13326840,0.12405474,
 0.00001465,-0.00002528,0.00000941,0.00031309,-0.00008744,-0.00036157,-
 0.00098615,-0.00071978,0.00066696,-0.00002812,-0.00014917,0.00019179,0
 .00001430,0.00008624,-0.00001697,0.00007599,-0.00009948,0.00014867,-0.
 00028273,-0.00019905,-0.00017802,0.00007123,0.00023649,-0.00013652,-0.
 00031723,-0.00514379,-0.00458073,-0.00005080,0.00006059,-0.00002134,0.
 00002218,-0.00000120,-0.00000397,-0.00002255,0.00000184,-0.00001545,0.
 00000577,-0.00001226,-0.00001024,-0.00003290,-0.00012036,-0.00008569,0
 .00000461,0.00000699,-0.00004414,-0.00001164,-0.00001780,-0.00002913,0
 .,0.00000838,-0.00001360,0.00004335,0.00000388,-0.00004532,0.00001175,
 -0.00003546,0.00002827,-0.00000007,0.00000266,-0.00000157,-0.00000059,
 0.00000385,-0.00000333,-0.00000397,-0.00000110,-0.00000117,-0.00004235
 ,-0.00002387,0.00003395,0.00000257,0.00000283,-0.00000456,0.00000355,0
 .00000682,-0.00000197,0.00000285,-0.00000052,-0.00000270,-0.00019147,-
 0.00015218,0.00007106,0.00003662,-0.00001761,-0.00003114,0.00003965,0.
 00002535,0.00000511,-0.00000127,0.00001438,-0.00001379,-0.02558103,-0.
 01104467,-0.00112243,0.00064121,0.00201585,0.00142934,-0.01122053,-0.0
 0777301,-0.04866179,0.02404347,0.01214147,0.00410264,-0.00316809,-0.00
 193568,-0.00184217,0.01659463,0.01294210,0.05054213\\0.00000418,0.0000
 0373,0.00000637,0.00000130,-0.00000111,0.00000185,0.00000189,0.0000043
 0,-0.00000114,-0.00000003,0.00000242,-0.00000076,-0.00000333,-0.000002
 61,0.00000019,-0.00000295,-0.00000333,0.00000886,0.00000067,0.00000381
 ,0.00000431,0.00000054,-0.00000195,-0.00000214,0.00001330,0.00000473,0
 .00000020,-0.00000267,-0.00000556,0.00000505,0.00000135,0.00000201,0.0
 0000224,0.00000280,0.00000238,0.00000647,0.00000393,0.00000352,0.00000
 466,0.00000206,0.00000166,0.00000093,-0.00000048,-0.00000115,-0.000004
 71,-0.00000260,-0.00000275,0.00000117,-0.00000211,-0.00000226,0.000005
 70,-0.00000082,-0.00000072,0.00000175,-0.00000354,0.00000143,0.0000064
 4,-0.00000207,-0.00000271,0.00000461,-0.00000219,-0.00000342,0.0000052
 1,-0.00000112,-0.00000242,0.00000139,-0.00000658,-0.00000515,0.0000007
 7,-0.00000586,-0.00000534,-0.00000070,-0.00000393,-0.00000300,-0.00000
 299,-0.00000441,-0.00000437,-0.00000059,-0.00000209,-0.00000315,-0.000
 00416,-0.00000107,-0.00000082,-0.00000605,-0.00000385,-0.00000244,-0.0
 0000480,-0.00000210,-0.00000153,-0.00000420,-0.00001188,-0.00000160,-0
 .00000397,0.00000893,0.00000295,-0.00000870,0.00000222,0.00000634,-0.0
 0000514,0.00000884,0.00000706,-0.00000426,0.00000662,0.00000532,-0.000
 00569,0.00000705,0.00000575,-0.00000816\\\@


 ...THE PHYSICISTS HAVE MADE THEIR UNIVERSE, AND IF YOU DO NOT LIKE
 IT, YOU MUST MAKE YOUR OWN.
                               -- E. R. HARRISON IN "COSMOLOGY" (1980)
 Job cpu time:       0 days  5 hours 39 minutes 27.1 seconds.
 File lengths (MBytes):  RWF=    766 Int=      0 D2E=      0 Chk=     19 Scr=      1
 Normal termination of Gaussian 09 at Mon Jan  9 23:29:26 2017.
