 Entering Gaussian System, Link 0=g09
 Initial command:
 /share/apps//g09/l1.exe "/scratch/Gau-48590.inp" -scrdir="/scratch/"
 Entering Link 1 = /share/apps//g09/l1.exe PID=     48591.
  
 Copyright (c) 1988,1990,1992,1993,1995,1998,2003,2009,2013,
            Gaussian, Inc.  All Rights Reserved.
  
 This is part of the Gaussian(R) 09 program.  It is based on
 the Gaussian(R) 03 system (copyright 2003, Gaussian, Inc.),
 the Gaussian(R) 98 system (copyright 1998, Gaussian, Inc.),
 the Gaussian(R) 94 system (copyright 1995, Gaussian, Inc.),
 the Gaussian 92(TM) system (copyright 1992, Gaussian, Inc.),
 the Gaussian 90(TM) system (copyright 1990, Gaussian, Inc.),
 the Gaussian 88(TM) system (copyright 1988, Gaussian, Inc.),
 the Gaussian 86(TM) system (copyright 1986, Carnegie Mellon
 University), and the Gaussian 82(TM) system (copyright 1983,
 Carnegie Mellon University). Gaussian is a federally registered
 trademark of Gaussian, Inc.
  
 This software contains proprietary and confidential information,
 including trade secrets, belonging to Gaussian, Inc.
  
 This software is provided under written license and may be
 used, copied, transmitted, or stored only in accord with that
 written license.
  
 The following legend is applicable only to US Government
 contracts under FAR:
  
                    RESTRICTED RIGHTS LEGEND
  
 Use, reproduction and disclosure by the US Government is
 subject to restrictions as set forth in subparagraphs (a)
 and (c) of the Commercial Computer Software - Restricted
 Rights clause in FAR 52.227-19.
  
 Gaussian, Inc.
 340 Quinnipiac St., Bldg. 40, Wallingford CT 06492
  
  
 ---------------------------------------------------------------
 Warning -- This program may not be used in any manner that
 competes with the business of Gaussian, Inc. or will provide
 assistance to any competitor of Gaussian, Inc.  The licensee
 of this program is prohibited from giving any competitor of
 Gaussian, Inc. access to this program.  By using this program,
 the user acknowledges that Gaussian, Inc. is engaged in the
 business of creating and licensing software in the field of
 computational chemistry and represents and warrants to the
 licensee that it is not a competitor of Gaussian, Inc. and that
 it will not use this program in any manner prohibited above.
 ---------------------------------------------------------------
  

 Cite this work as:
 Gaussian 09, Revision D.01,
 M. J. Frisch, G. W. Trucks, H. B. Schlegel, G. E. Scuseria, 
 M. A. Robb, J. R. Cheeseman, G. Scalmani, V. Barone, B. Mennucci, 
 G. A. Petersson, H. Nakatsuji, M. Caricato, X. Li, H. P. Hratchian, 
 A. F. Izmaylov, J. Bloino, G. Zheng, J. L. Sonnenberg, M. Hada, 
 M. Ehara, K. Toyota, R. Fukuda, J. Hasegawa, M. Ishida, T. Nakajima, 
 Y. Honda, O. Kitao, H. Nakai, T. Vreven, J. A. Montgomery, Jr., 
 J. E. Peralta, F. Ogliaro, M. Bearpark, J. J. Heyd, E. Brothers, 
 K. N. Kudin, V. N. Staroverov, T. Keith, R. Kobayashi, J. Normand, 
 K. Raghavachari, A. Rendell, J. C. Burant, S. S. Iyengar, J. Tomasi, 
 M. Cossi, N. Rega, J. M. Millam, M. Klene, J. E. Knox, J. B. Cross, 
 V. Bakken, C. Adamo, J. Jaramillo, R. Gomperts, R. E. Stratmann, 
 O. Yazyev, A. J. Austin, R. Cammi, C. Pomelli, J. W. Ochterski, 
 R. L. Martin, K. Morokuma, V. G. Zakrzewski, G. A. Voth, 
 P. Salvador, J. J. Dannenberg, S. Dapprich, A. D. Daniels, 
 O. Farkas, J. B. Foresman, J. V. Ortiz, J. Cioslowski, 
 and D. J. Fox, Gaussian, Inc., Wallingford CT, 2013.
 
 ******************************************
 Gaussian 09:  EM64L-G09RevD.01 24-Apr-2013
                10-Jan-2017 
 ******************************************
 %nproc=20
 Will use up to   20 processors via shared memory.
 %mem=100GB
 %chk=Ac-4_cGalMe.chk
 -------------------------------------------------------------------
 #P PBE1PBE/6-311+G(d,p) opt optcyc=999 freq EmpiricalDispersion=GD3
 -------------------------------------------------------------------
 1/6=999,14=-1,18=20,19=15,26=3,38=1/1,3;
 2/9=110,12=2,17=6,18=5,40=1/2;
 3/5=4,6=6,7=111,11=2,16=1,25=1,30=1,71=1,74=-13,124=31/1,2,3;
 4//1;
 5/5=2,38=5/2;
 6/7=2,8=2,9=2,10=2,28=1/1;
 7//1,2,3,16;
 1/6=999,14=-1,18=20,19=15,26=3/3(2);
 2/9=110/2;
 99//99;
 2/9=110/2;
 3/5=4,6=6,7=111,11=2,16=1,25=1,30=1,71=1,74=-13,124=31/1,2,3;
 4/5=5,16=3,69=1/1;
 5/5=2,38=5/2;
 7//1,2,3,16;
 1/6=999,14=-1,18=20,19=15,26=3/3(-5);
 2/9=110/2;
 6/7=2,8=2,9=2,10=2,19=2,28=1/1;
 99/9=1/99;
 Leave Link    1 at Tue Jan 10 10:08:01 2017, MaxMem= 13421772800 cpu:         1.5
 (Enter /share/apps//g09/l101.exe)
 -------
 disacch
 -------
 Symbolic Z-matrix:
 Charge =  1 Multiplicity = 1
 C                    -2.01685   2.23434   0.20654 
 C                    -0.82602   1.41235   0.65216 
 C                     0.51795   2.1056    0.62533 
 C                     1.67172   1.10052   0.85373 
 C                     1.63535   0.058    -0.26748 
 C                     0.25435  -0.33193  -0.67174 
 O                    -0.82906   0.17045  -0.25534 
 O                     2.94727   1.68155   0.80772 
 O                     0.69731   2.76623  -0.63796 
 O                    -3.17592   1.57206   0.64595 
 H                    -1.99914   2.37113  -0.89259 
 H                    -1.90831   3.24075   0.66328 
 H                    -1.03749   0.9717    1.63837 
 H                     0.52241   2.86449   1.42704 
 H                     1.49702   0.58348   1.81938 
 H                     2.15673   0.49056  -1.14448 
 H                     0.11836  -1.21687  -1.30757 
 O                     2.18899  -1.17838   0.15589 
 C                    -4.38048   2.21475   0.20617 
 H                    -5.20909   1.61682   0.5987 
 H                    -4.45013   3.24158   0.60231 
 H                    -4.43654   2.24181  -0.89522 
 C                     3.2172   -1.7105   -0.70841 
 H                     2.81252  -1.99119  -1.69333 
 H                     4.02106  -0.96866  -0.82812 
 H                     3.5949   -2.60522  -0.20422 
 C                     3.34654   2.34015   2.02636 
 H                     2.75126   3.24735   2.21021 
 H                     3.26892   1.6512    2.88267 
 H                     4.3937    2.62403   1.88184 
 C                     1.12422   4.10071  -0.54885 
 O                     1.222     4.67212   0.51166 
 C                     1.42649   4.64583  -1.90793 
 H                     0.72337   4.26741  -2.65838 
 H                     2.43646   4.32099  -2.19817 
 H                     1.40933   5.73892  -1.87303 
 
 NAtoms=     36 NQM=       36 NQMF=       0 NMMI=      0 NMMIF=      0
                NMic=       0 NMicF=      0.
                    Isotopes and Nuclear Properties:
 (Nuclear quadrupole moments (NQMom) in fm**2, nuclear magnetic moments (NMagM)
  in nuclear magnetons)

  Atom         1           2           3           4           5           6           7           8           9          10
 IAtWgt=          12          12          12          12          12          12          16          16          16          16
 AtmWgt=  12.0000000  12.0000000  12.0000000  12.0000000  12.0000000  12.0000000  15.9949146  15.9949146  15.9949146  15.9949146
 NucSpn=           0           0           0           0           0           0           0           0           0           0
 AtZEff=   0.0000000   0.0000000   0.0000000   0.0000000   0.0000000   0.0000000   0.0000000   0.0000000   0.0000000   0.0000000
 NQMom=    0.0000000   0.0000000   0.0000000   0.0000000   0.0000000   0.0000000   0.0000000   0.0000000   0.0000000   0.0000000
 NMagM=    0.0000000   0.0000000   0.0000000   0.0000000   0.0000000   0.0000000   0.0000000   0.0000000   0.0000000   0.0000000
 AtZNuc=   6.0000000   6.0000000   6.0000000   6.0000000   6.0000000   6.0000000   8.0000000   8.0000000   8.0000000   8.0000000

  Atom        11          12          13          14          15          16          17          18          19          20
 IAtWgt=           1           1           1           1           1           1           1          16          12           1
 AtmWgt=   1.0078250   1.0078250   1.0078250   1.0078250   1.0078250   1.0078250   1.0078250  15.9949146  12.0000000   1.0078250
 NucSpn=           1           1           1           1           1           1           1           0           0           1
 AtZEff=   0.0000000   0.0000000   0.0000000   0.0000000   0.0000000   0.0000000   0.0000000   0.0000000   0.0000000   0.0000000
 NQMom=    0.0000000   0.0000000   0.0000000   0.0000000   0.0000000   0.0000000   0.0000000   0.0000000   0.0000000   0.0000000
 NMagM=    2.7928460   2.7928460   2.7928460   2.7928460   2.7928460   2.7928460   2.7928460   0.0000000   0.0000000   2.7928460
 AtZNuc=   1.0000000   1.0000000   1.0000000   1.0000000   1.0000000   1.0000000   1.0000000   8.0000000   6.0000000   1.0000000

  Atom        21          22          23          24          25          26          27          28          29          30
 IAtWgt=           1           1          12           1           1           1          12           1           1           1
 AtmWgt=   1.0078250   1.0078250  12.0000000   1.0078250   1.0078250   1.0078250  12.0000000   1.0078250   1.0078250   1.0078250
 NucSpn=           1           1           0           1           1           1           0           1           1           1
 AtZEff=   0.0000000   0.0000000   0.0000000   0.0000000   0.0000000   0.0000000   0.0000000   0.0000000   0.0000000   0.0000000
 NQMom=    0.0000000   0.0000000   0.0000000   0.0000000   0.0000000   0.0000000   0.0000000   0.0000000   0.0000000   0.0000000
 NMagM=    2.7928460   2.7928460   0.0000000   2.7928460   2.7928460   2.7928460   0.0000000   2.7928460   2.7928460   2.7928460
 AtZNuc=   1.0000000   1.0000000   6.0000000   1.0000000   1.0000000   1.0000000   6.0000000   1.0000000   1.0000000   1.0000000

  Atom        31          32          33          34          35          36
 IAtWgt=          12          16          12           1           1           1
 AtmWgt=  12.0000000  15.9949146  12.0000000   1.0078250   1.0078250   1.0078250
 NucSpn=           0           0           0           1           1           1
 AtZEff=   0.0000000   0.0000000   0.0000000   0.0000000   0.0000000   0.0000000
 NQMom=    0.0000000   0.0000000   0.0000000   0.0000000   0.0000000   0.0000000
 NMagM=    0.0000000   0.0000000   0.0000000   2.7928460   2.7928460   2.7928460
 AtZNuc=   6.0000000   8.0000000   6.0000000   1.0000000   1.0000000   1.0000000
 Leave Link  101 at Tue Jan 10 10:08:01 2017, MaxMem= 13421772800 cpu:         5.2
 (Enter /share/apps//g09/l103.exe)

 GradGradGradGradGradGradGradGradGradGradGradGradGradGradGradGradGradGrad
 Berny optimization.
 Initialization pass.
                           ----------------------------
                           !    Initial Parameters    !
                           ! (Angstroms and Degrees)  !
 --------------------------                            --------------------------
 ! Name  Definition              Value          Derivative Info.                !
 --------------------------------------------------------------------------------
 ! R1    R(1,2)                  1.514          estimate D2E/DX2                !
 ! R2    R(1,10)                 1.4054         estimate D2E/DX2                !
 ! R3    R(1,11)                 1.1078         estimate D2E/DX2                !
 ! R4    R(1,12)                 1.1105         estimate D2E/DX2                !
 ! R5    R(2,3)                  1.5125         estimate D2E/DX2                !
 ! R6    R(2,7)                  1.5381         estimate D2E/DX2                !
 ! R7    R(2,13)                 1.1007         estimate D2E/DX2                !
 ! R8    R(3,4)                  1.5471         estimate D2E/DX2                !
 ! R9    R(3,9)                  1.4368         estimate D2E/DX2                !
 ! R10   R(3,14)                 1.1039         estimate D2E/DX2                !
 ! R11   R(4,5)                  1.5314         estimate D2E/DX2                !
 ! R12   R(4,8)                  1.4024         estimate D2E/DX2                !
 ! R13   R(4,15)                 1.1092         estimate D2E/DX2                !
 ! R14   R(5,6)                  1.4908         estimate D2E/DX2                !
 ! R15   R(5,16)                 1.1082         estimate D2E/DX2                !
 ! R16   R(5,18)                 1.4193         estimate D2E/DX2                !
 ! R17   R(6,7)                  1.2647         estimate D2E/DX2                !
 ! R18   R(6,17)                 1.0981         estimate D2E/DX2                !
 ! R19   R(8,27)                 1.4416         estimate D2E/DX2                !
 ! R20   R(9,31)                 1.4039         estimate D2E/DX2                !
 ! R21   R(10,19)                1.4344         estimate D2E/DX2                !
 ! R22   R(18,23)                1.4448         estimate D2E/DX2                !
 ! R23   R(19,20)                1.0946         estimate D2E/DX2                !
 ! R24   R(19,21)                1.1028         estimate D2E/DX2                !
 ! R25   R(19,22)                1.1031         estimate D2E/DX2                !
 ! R26   R(23,24)                1.1012         estimate D2E/DX2                !
 ! R27   R(23,25)                1.1004         estimate D2E/DX2                !
 ! R28   R(23,26)                1.0943         estimate D2E/DX2                !
 ! R29   R(27,28)                1.1005         estimate D2E/DX2                !
 ! R30   R(27,29)                1.1018         estimate D2E/DX2                !
 ! R31   R(27,30)                1.0945         estimate D2E/DX2                !
 ! R32   R(31,32)                1.2086         estimate D2E/DX2                !
 ! R33   R(31,33)                1.4952         estimate D2E/DX2                !
 ! R34   R(33,34)                1.0958         estimate D2E/DX2                !
 ! R35   R(33,35)                1.0999         estimate D2E/DX2                !
 ! R36   R(33,36)                1.0938         estimate D2E/DX2                !
 ! A1    A(2,1,10)             107.5059         estimate D2E/DX2                !
 ! A2    A(2,1,11)             110.2735         estimate D2E/DX2                !
 ! A3    A(2,1,12)             107.1029         estimate D2E/DX2                !
 ! A4    A(10,1,11)            112.433          estimate D2E/DX2                !
 ! A5    A(10,1,12)            112.2766         estimate D2E/DX2                !
 ! A6    A(11,1,12)            107.1344         estimate D2E/DX2                !
 ! A7    A(1,2,3)              116.4126         estimate D2E/DX2                !
 ! A8    A(1,2,7)              105.2566         estimate D2E/DX2                !
 ! A9    A(1,2,13)             109.2659         estimate D2E/DX2                !
 ! A10   A(3,2,7)              111.1842         estimate D2E/DX2                !
 ! A11   A(3,2,13)             111.7227         estimate D2E/DX2                !
 ! A12   A(7,2,13)             101.8306         estimate D2E/DX2                !
 ! A13   A(2,3,4)              111.2407         estimate D2E/DX2                !
 ! A14   A(2,3,9)              109.7102         estimate D2E/DX2                !
 ! A15   A(2,3,14)             107.8063         estimate D2E/DX2                !
 ! A16   A(4,3,9)              109.597          estimate D2E/DX2                !
 ! A17   A(4,3,14)             109.6559         estimate D2E/DX2                !
 ! A18   A(9,3,14)             108.78           estimate D2E/DX2                !
 ! A19   A(3,4,5)              108.4486         estimate D2E/DX2                !
 ! A20   A(3,4,8)              113.8474         estimate D2E/DX2                !
 ! A21   A(3,4,15)             108.294          estimate D2E/DX2                !
 ! A22   A(5,4,8)              106.2376         estimate D2E/DX2                !
 ! A23   A(5,4,15)             108.4404         estimate D2E/DX2                !
 ! A24   A(8,4,15)             111.4039         estimate D2E/DX2                !
 ! A25   A(4,5,6)              113.489          estimate D2E/DX2                !
 ! A26   A(4,5,16)             107.6082         estimate D2E/DX2                !
 ! A27   A(4,5,18)             111.4297         estimate D2E/DX2                !
 ! A28   A(6,5,16)             108.8634         estimate D2E/DX2                !
 ! A29   A(6,5,18)             102.3794         estimate D2E/DX2                !
 ! A30   A(16,5,18)            113.1144         estimate D2E/DX2                !
 ! A31   A(5,6,7)              126.8944         estimate D2E/DX2                !
 ! A32   A(5,6,17)             118.8481         estimate D2E/DX2                !
 ! A33   A(7,6,17)             113.8695         estimate D2E/DX2                !
 ! A34   A(2,7,6)              120.8822         estimate D2E/DX2                !
 ! A35   A(4,8,27)             114.4218         estimate D2E/DX2                !
 ! A36   A(3,9,31)             114.7833         estimate D2E/DX2                !
 ! A37   A(1,10,19)            112.68           estimate D2E/DX2                !
 ! A38   A(5,18,23)            114.8347         estimate D2E/DX2                !
 ! A39   A(10,19,20)           106.32           estimate D2E/DX2                !
 ! A40   A(10,19,21)           111.1065         estimate D2E/DX2                !
 ! A41   A(10,19,22)           111.0867         estimate D2E/DX2                !
 ! A42   A(20,19,21)           109.3898         estimate D2E/DX2                !
 ! A43   A(20,19,22)           109.4484         estimate D2E/DX2                !
 ! A44   A(21,19,22)           109.4262         estimate D2E/DX2                !
 ! A45   A(18,23,24)           111.5556         estimate D2E/DX2                !
 ! A46   A(18,23,25)           109.6746         estimate D2E/DX2                !
 ! A47   A(18,23,26)           105.733          estimate D2E/DX2                !
 ! A48   A(24,23,25)           110.0599         estimate D2E/DX2                !
 ! A49   A(24,23,26)           109.3016         estimate D2E/DX2                !
 ! A50   A(25,23,26)           110.4387         estimate D2E/DX2                !
 ! A51   A(8,27,28)            111.5925         estimate D2E/DX2                !
 ! A52   A(8,27,29)            110.598          estimate D2E/DX2                !
 ! A53   A(8,27,30)            105.7741         estimate D2E/DX2                !
 ! A54   A(28,27,29)           110.3352         estimate D2E/DX2                !
 ! A55   A(28,27,30)           109.0109         estimate D2E/DX2                !
 ! A56   A(29,27,30)           109.4021         estimate D2E/DX2                !
 ! A57   A(9,31,32)            121.9843         estimate D2E/DX2                !
 ! A58   A(9,31,33)            110.5071         estimate D2E/DX2                !
 ! A59   A(32,31,33)           127.5068         estimate D2E/DX2                !
 ! A60   A(31,33,34)           111.5233         estimate D2E/DX2                !
 ! A61   A(31,33,35)           108.5306         estimate D2E/DX2                !
 ! A62   A(31,33,36)           109.4008         estimate D2E/DX2                !
 ! A63   A(34,33,35)           107.8474         estimate D2E/DX2                !
 ! A64   A(34,33,36)           110.9104         estimate D2E/DX2                !
 ! A65   A(35,33,36)           108.5403         estimate D2E/DX2                !
 ! D1    D(10,1,2,3)          -163.8872         estimate D2E/DX2                !
 ! D2    D(10,1,2,7)            72.4918         estimate D2E/DX2                !
 ! D3    D(10,1,2,13)          -36.1984         estimate D2E/DX2                !
 ! D4    D(11,1,2,3)            73.2201         estimate D2E/DX2                !
 ! D5    D(11,1,2,7)           -50.4009         estimate D2E/DX2                !
 ! D6    D(11,1,2,13)         -159.0911         estimate D2E/DX2                !
 ! D7    D(12,1,2,3)           -43.028          estimate D2E/DX2                !
 ! D8    D(12,1,2,7)          -166.649          estimate D2E/DX2                !
 ! D9    D(12,1,2,13)           84.6607         estimate D2E/DX2                !
 ! D10   D(2,1,10,19)         -176.2176         estimate D2E/DX2                !
 ! D11   D(11,1,10,19)         -54.6645         estimate D2E/DX2                !
 ! D12   D(12,1,10,19)          66.237          estimate D2E/DX2                !
 ! D13   D(1,2,3,4)           -169.7911         estimate D2E/DX2                !
 ! D14   D(1,2,3,9)            -48.3587         estimate D2E/DX2                !
 ! D15   D(1,2,3,14)            69.9514         estimate D2E/DX2                !
 ! D16   D(7,2,3,4)            -49.2872         estimate D2E/DX2                !
 ! D17   D(7,2,3,9)             72.1453         estimate D2E/DX2                !
 ! D18   D(7,2,3,14)          -169.5447         estimate D2E/DX2                !
 ! D19   D(13,2,3,4)            63.7353         estimate D2E/DX2                !
 ! D20   D(13,2,3,9)          -174.8323         estimate D2E/DX2                !
 ! D21   D(13,2,3,14)          -56.5222         estimate D2E/DX2                !
 ! D22   D(1,2,7,6)            142.5649         estimate D2E/DX2                !
 ! D23   D(3,2,7,6)             15.6802         estimate D2E/DX2                !
 ! D24   D(13,2,7,6)          -103.446          estimate D2E/DX2                !
 ! D25   D(2,3,4,5)             60.5444         estimate D2E/DX2                !
 ! D26   D(2,3,4,8)            178.5624         estimate D2E/DX2                !
 ! D27   D(2,3,4,15)           -56.939          estimate D2E/DX2                !
 ! D28   D(9,3,4,5)            -60.954          estimate D2E/DX2                !
 ! D29   D(9,3,4,8)             57.064          estimate D2E/DX2                !
 ! D30   D(9,3,4,15)          -178.4375         estimate D2E/DX2                !
 ! D31   D(14,3,4,5)           179.7026         estimate D2E/DX2                !
 ! D32   D(14,3,4,8)           -62.2794         estimate D2E/DX2                !
 ! D33   D(14,3,4,15)           62.2191         estimate D2E/DX2                !
 ! D34   D(2,3,9,31)           131.2353         estimate D2E/DX2                !
 ! D35   D(4,3,9,31)          -106.3501         estimate D2E/DX2                !
 ! D36   D(14,3,9,31)           13.5305         estimate D2E/DX2                !
 ! D37   D(3,4,5,6)            -37.8409         estimate D2E/DX2                !
 ! D38   D(3,4,5,16)            82.6752         estimate D2E/DX2                !
 ! D39   D(3,4,5,18)          -152.782          estimate D2E/DX2                !
 ! D40   D(8,4,5,6)           -160.5973         estimate D2E/DX2                !
 ! D41   D(8,4,5,16)           -40.0813         estimate D2E/DX2                !
 ! D42   D(8,4,5,18)            84.4616         estimate D2E/DX2                !
 ! D43   D(15,4,5,6)            79.549          estimate D2E/DX2                !
 ! D44   D(15,4,5,16)         -159.9349         estimate D2E/DX2                !
 ! D45   D(15,4,5,18)          -35.3921         estimate D2E/DX2                !
 ! D46   D(3,4,8,27)            80.8375         estimate D2E/DX2                !
 ! D47   D(5,4,8,27)          -159.8806         estimate D2E/DX2                !
 ! D48   D(15,4,8,27)          -41.9745         estimate D2E/DX2                !
 ! D49   D(4,5,6,7)              5.2544         estimate D2E/DX2                !
 ! D50   D(4,5,6,17)          -167.128          estimate D2E/DX2                !
 ! D51   D(16,5,6,7)          -114.5499         estimate D2E/DX2                !
 ! D52   D(16,5,6,17)           73.0676         estimate D2E/DX2                !
 ! D53   D(18,5,6,7)           125.4689         estimate D2E/DX2                !
 ! D54   D(18,5,6,17)          -46.9135         estimate D2E/DX2                !
 ! D55   D(4,5,18,23)         -127.8494         estimate D2E/DX2                !
 ! D56   D(6,5,18,23)          110.515          estimate D2E/DX2                !
 ! D57   D(16,5,18,23)          -6.459          estimate D2E/DX2                !
 ! D58   D(5,6,7,2)              7.0761         estimate D2E/DX2                !
 ! D59   D(17,6,7,2)           179.7816         estimate D2E/DX2                !
 ! D60   D(4,8,27,28)          -68.6608         estimate D2E/DX2                !
 ! D61   D(4,8,27,29)           54.5697         estimate D2E/DX2                !
 ! D62   D(4,8,27,30)          172.9251         estimate D2E/DX2                !
 ! D63   D(3,9,31,32)           -5.8685         estimate D2E/DX2                !
 ! D64   D(3,9,31,33)          173.6725         estimate D2E/DX2                !
 ! D65   D(1,10,19,20)         179.7541         estimate D2E/DX2                !
 ! D66   D(1,10,19,21)         -61.3101         estimate D2E/DX2                !
 ! D67   D(1,10,19,22)          60.7586         estimate D2E/DX2                !
 ! D68   D(5,18,23,24)         -66.0661         estimate D2E/DX2                !
 ! D69   D(5,18,23,25)          56.1359         estimate D2E/DX2                !
 ! D70   D(5,18,23,26)         175.2149         estimate D2E/DX2                !
 ! D71   D(9,31,33,34)          37.0543         estimate D2E/DX2                !
 ! D72   D(9,31,33,35)         -81.6091         estimate D2E/DX2                !
 ! D73   D(9,31,33,36)         160.1231         estimate D2E/DX2                !
 ! D74   D(32,31,33,34)       -143.4365         estimate D2E/DX2                !
 ! D75   D(32,31,33,35)         97.9001         estimate D2E/DX2                !
 ! D76   D(32,31,33,36)        -20.3676         estimate D2E/DX2                !
 --------------------------------------------------------------------------------
 Trust Radius=3.00D-01 FncErr=1.00D-07 GrdErr=1.00D-06
 Number of steps in this run=    216 maximum allowed number of steps=    216.
 GradGradGradGradGradGradGradGradGradGradGradGradGradGradGradGradGradGrad

 Leave Link  103 at Tue Jan 10 10:08:01 2017, MaxMem= 13421772800 cpu:         0.2
 (Enter /share/apps//g09/l202.exe)
                          Input orientation:                          
 ---------------------------------------------------------------------
 Center     Atomic      Atomic             Coordinates (Angstroms)
 Number     Number       Type             X           Y           Z
 ---------------------------------------------------------------------
      1          6           0       -2.016850    2.234340    0.206540
      2          6           0       -0.826020    1.412350    0.652160
      3          6           0        0.517950    2.105600    0.625330
      4          6           0        1.671720    1.100520    0.853730
      5          6           0        1.635350    0.058000   -0.267480
      6          6           0        0.254350   -0.331930   -0.671740
      7          8           0       -0.829060    0.170450   -0.255340
      8          8           0        2.947270    1.681550    0.807720
      9          8           0        0.697310    2.766230   -0.637960
     10          8           0       -3.175920    1.572060    0.645950
     11          1           0       -1.999140    2.371130   -0.892590
     12          1           0       -1.908310    3.240750    0.663280
     13          1           0       -1.037490    0.971700    1.638370
     14          1           0        0.522410    2.864490    1.427040
     15          1           0        1.497020    0.583480    1.819380
     16          1           0        2.156730    0.490560   -1.144480
     17          1           0        0.118360   -1.216870   -1.307570
     18          8           0        2.188990   -1.178380    0.155890
     19          6           0       -4.380480    2.214750    0.206170
     20          1           0       -5.209090    1.616820    0.598700
     21          1           0       -4.450130    3.241580    0.602310
     22          1           0       -4.436540    2.241810   -0.895220
     23          6           0        3.217200   -1.710500   -0.708410
     24          1           0        2.812520   -1.991190   -1.693330
     25          1           0        4.021060   -0.968660   -0.828120
     26          1           0        3.594900   -2.605220   -0.204220
     27          6           0        3.346540    2.340150    2.026360
     28          1           0        2.751260    3.247350    2.210210
     29          1           0        3.268920    1.651200    2.882670
     30          1           0        4.393700    2.624030    1.881840
     31          6           0        1.124220    4.100710   -0.548850
     32          8           0        1.222000    4.672120    0.511660
     33          6           0        1.426490    4.645830   -1.907930
     34          1           0        0.723370    4.267410   -2.658380
     35          1           0        2.436460    4.320990   -2.198170
     36          1           0        1.409330    5.738920   -1.873030
 ---------------------------------------------------------------------
                    Distance matrix (angstroms):
                    1          2          3          4          5
     1  C    0.000000
     2  C    1.514041   0.000000
     3  C    2.572386   1.512472   0.000000
     4  C    3.912793   2.525188   1.547106   0.000000
     5  C    4.277817   2.956069   2.497671   1.531432   0.000000
     6  C    3.537721   2.441807   2.773703   2.527431   1.490850
     7  O    2.425659   1.538142   2.516907   2.889458   2.467004
     8  O    5.030853   3.786078   2.472788   1.402405   2.348000
     9  O    2.891842   2.412040   1.436838   2.439099   2.889928
    10  O    1.405396   2.355329   3.732260   4.874950   5.125920
    11  H    1.107751   2.163729   2.951327   4.259025   4.353257
    12  H    1.110519   2.124740   2.678944   4.175341   4.853219
    13  H    2.145587   1.100683   2.175172   2.823486   3.407519
    14  H    2.886962   2.127772   1.103935   2.182015   3.462141
    15  H    4.204031   2.728725   2.168221   1.109203   2.156444
    16  H    4.720677   3.602001   2.902789   2.144791   1.108185
    17  H    4.331570   3.412505   3.864529   3.529085   2.237932
    18  O    5.416485   4.006052   3.714468   2.438839   1.419294
    19  C    2.363711   3.671095   4.917543   6.187889   6.408286
    20  H    3.274983   4.388162   5.747922   6.904864   7.072945
    21  H    2.663084   4.059894   5.096352   6.490331   6.922773
    22  H    2.658727   4.014753   5.184361   6.455402   6.483127
    23  C    6.617717   5.286868   4.860806   3.568000   2.413351
    24  H    6.692341   5.506758   5.236881   4.165046   2.760065
    25  H    6.912748   5.599520   4.882148   3.553804   2.657059
    26  H    7.421712   6.034798   5.687495   4.307016   3.307050
    27  C    5.664706   4.489933   3.165252   2.390976   3.660339
    28  H    5.270271   4.311807   2.967004   2.759406   4.190007
    29  H    5.953242   4.669128   3.587464   2.640245   3.889766
    30  H    6.637292   5.497796   4.107192   3.284398   4.337347
    31  C    3.730988   3.531733   2.393058   3.356803   4.084596
    32  O    4.065221   3.852301   2.663763   3.616018   4.697661
    33  C    4.705620   4.699282   3.700759   4.500681   4.876770
    34  H    4.455328   4.638066   3.936797   4.823223   4.926179
    35  H    5.474368   5.218079   4.069495   4.502260   4.747886
    36  H    5.324040   5.485671   4.498597   5.386912   5.907768
                    6          7          8          9         10
     6  C    0.000000
     7  O    1.264734   0.000000
     8  O    3.673516   4.204068   0.000000
     9  O    3.129848   3.035503   2.885973   0.000000
    10  O    4.138627   2.878296   6.126305   4.251632   0.000000
    11  H    3.526120   2.572580   5.275751   2.737112   2.095335
    12  H    4.384452   3.381625   5.101826   2.950873   2.095629
    13  H    2.950408   2.066781   4.131849   3.378098   2.432738
    14  H    3.833254   3.451771   2.768185   2.074722   3.994762
    15  H    2.930509   3.144154   2.081451   3.382670   4.918394
    16  H    2.125799   3.131770   2.419606   2.750481   5.728214
    17  H    1.098131   1.982284   4.569247   4.080275   4.737790
    18  O    2.268101   3.331228   3.029698   4.291300   6.048747
    19  C    5.360779   4.123680   7.371708   5.176933   1.434372
    20  H    5.938082   4.691059   8.159295   6.142966   2.034211
    21  H    6.043617   4.824889   7.562897   5.316048   2.100670
    22  H    5.355234   4.208787   7.598325   5.166973   2.100698
    23  C    3.268070   4.485027   3.725254   5.137696   7.313103
    24  H    3.215746   4.472316   4.445495   5.312341   7.350537
    25  H    3.823347   5.014909   3.294330   5.003287   7.773330
    26  H    4.067640   5.222871   4.451948   6.118548   8.001029
    27  C    4.897080   5.229664   1.441615   3.781344   6.711034
    28  H    5.229860   5.325875   2.111191   3.544328   6.354917
    29  H    5.065004   5.369652   2.099952   4.500145   6.822400
    30  H    5.691458   6.153439   2.033264   4.475814   7.741654
    31  C    4.518858   4.398681   3.319055   1.403934   5.129603
    32  O    5.232332   5.006013   3.465215   2.286776   5.382389
    33  C    5.261195   5.277081   4.298195   2.382734   6.095289
    34  H    5.031963   4.996971   4.862741   2.517204   5.778233
    35  H    5.361087   5.627183   4.032734   2.806453   6.866181
    36  H    6.295419   6.215719   5.100385   3.296856   6.688236
                   11         12         13         14         15
    11  H    0.000000
    12  H    1.784719   0.000000
    13  H    3.047775   2.618724   0.000000
    14  H    3.461546   2.575519   2.461829   0.000000
    15  H    4.772170   4.471457   2.570451   2.511335   0.000000
    16  H    4.568506   5.230305   4.263659   3.862546   3.037815
    17  H    4.186855   5.278448   3.847647   4.929386   3.862613
    18  O    5.589165   6.047646   4.150996   4.553911   2.519955
    19  C    2.627263   2.715373   3.843430   5.094214   6.309397
    20  H    3.618937   3.679194   4.347337   5.923928   6.894183
    21  H    2.999960   2.542551   4.227516   5.054555   6.626866
    22  H    2.440830   3.133489   4.425585   5.511062   6.732477
    23  C    6.625996   7.257221   5.550132   5.722986   3.822445
    24  H    6.543936   7.430548   5.890800   6.209585   4.549571
    25  H    6.884850   7.422994   5.952940   5.658563   3.973559
    26  H    7.518723   8.075472   6.135840   6.482201   4.320170
    27  C    6.090774   5.502955   4.609003   2.934251   2.559190
    28  H    5.741205   4.909646   4.456480   2.393263   2.970197
    29  H    6.520993   5.852869   4.533781   3.336802   2.325993
    30  H    6.973509   6.448299   5.682191   3.905323   3.543797
    31  C    3.586779   3.377133   4.387212   2.407188   4.256571
    32  O    4.200264   3.445381   4.479719   2.143565   4.301482
    33  C    4.235577   4.439174   5.669804   3.887487   5.513665
    34  H    3.758451   4.360412   5.694242   4.324260   5.849804
    35  H    5.018071   5.313364   6.164829   4.350532   5.567067
    36  H    4.890904   4.866257   6.406500   4.465360   6.341935
                   16         17         18         19         20
    16  H    0.000000
    17  H    2.663995   0.000000
    18  O    2.115978   2.535884   0.000000
    19  C    6.894360   5.857217   7.394173   0.000000
    20  H    7.652610   6.328143   7.920910   1.094621   0.000000
    21  H    7.366817   6.663071   7.988320   1.102795   1.793287
    22  H    6.826435   5.734075   7.529952   1.103148   1.794225
    23  C    2.481818   3.194601   1.444777   8.600511   9.153248
    24  H    2.624953   2.829643   2.114016   8.546185   9.089409
    25  H    2.388542   3.939866   2.090153   9.043767   9.691037
    26  H    3.540660   3.902721   2.035223   9.327766   9.796966
    27  C    3.858867   5.847104   4.149534   7.939500   8.704035
    28  H    4.382614   6.263880   4.911564   7.479583   8.283886
    29  H    4.336126   5.975782   4.075304   8.123704   8.780339
    30  H    4.326008   6.572928   4.722073   8.942126   9.740354
    31  C    3.801846   5.464803   5.431315   5.867591   6.899087
    32  O    4.593687   6.261615   5.940538   6.125339   7.120488
    33  C    4.287467   6.036794   6.225928   6.640818   7.712912
    34  H    4.314048   5.680498   6.302760   6.202285   7.268306
    35  H    3.982550   6.069156   5.987145   7.529128   8.578429
    36  H    5.351138   7.097138   7.250753   7.089764   8.179526
                   21         22         23         24         25
    21  H    0.000000
    22  H    1.800645   0.000000
    23  C    9.221119   8.615996   0.000000
    24  H    9.241100   8.432327   1.101190   0.000000
    25  H    9.567304   9.046691   1.100385   1.804086   0.000000
    26  H    9.977879   9.406126   1.094253   1.790698   1.802552
    27  C    7.976751   8.313942   4.889117   5.734263   4.421680
    28  H    7.378712   7.894256   5.771977   6.533275   5.349634
    29  H    8.204455   8.602057   4.919305   5.866437   4.604274
    30  H    8.957226   9.264518   5.184756   6.048324   4.515547
    31  C    5.756444   5.873460   6.178688   6.424285   5.845356
    32  O    5.850446   6.317024   6.797590   7.196627   6.438023
    33  C    6.542774   6.417166   6.711812   6.783595   6.278557
    34  H    6.200768   5.816912   6.764391   6.668279   6.452987
    35  H    7.512186   7.297863   6.261614   6.343493   5.689323
    36  H    6.833541   6.881867   7.753618   7.858488   7.273555
                   26         27         28         29         30
    26  H    0.000000
    27  C    5.430824   0.000000
    28  H    6.387001   1.100532   0.000000
    29  H    5.268042   1.101791   1.807725   0.000000
    30  H    5.686368   1.094540   1.787166   1.792537   0.000000
    31  C    7.154895   3.830142   3.314799   4.730240   4.333398
    32  O    7.687836   3.499439   2.693265   4.351727   4.016435
    33  C    7.757729   4.947867   4.546409   5.942407   5.220572
    34  H    7.842297   5.704572   5.371781   6.635331   6.065115
    35  H    7.300014   4.753801   4.548144   5.799630   4.832902
    36  H    8.785574   5.523555   4.968053   6.540964   5.719095
                   31         32         33         34         35
    31  C    0.000000
    32  O    1.208616   0.000000
    33  C    1.495199   2.428358   0.000000
    34  H    2.153738   3.234436   1.095790   0.000000
    35  H    2.119140   2.990215   1.099909   1.774638   0.000000
    36  H    2.125670   2.619141   1.093782   1.803513   1.780797
                   36
    36  H    0.000000
 Stoichiometry    C11H19O6(1+)
 Framework group  C1[X(C11H19O6)]
 Deg. of freedom   102
 Full point group                 C1      NOp   1
 Largest Abelian subgroup         C1      NOp   1
 Largest concise Abelian subgroup C1      NOp   1
                         Standard orientation:                         
 ---------------------------------------------------------------------
 Center     Atomic      Atomic             Coordinates (Angstroms)
 Number     Number       Type             X           Y           Z
 ---------------------------------------------------------------------
      1          6           0        2.595900   -0.312095   -0.148403
      2          6           0        1.190598   -0.685931   -0.569943
      3          6           0        0.160971    0.421446   -0.535972
      4          6           0       -1.268110   -0.135554   -0.738500
      5          6           0       -1.569593   -1.120263    0.394962
      6          6           0       -0.395980   -1.951468    0.787853
      7          8           0        0.787066   -1.848601    0.352685
      8          8           0       -2.271034    0.843219   -0.684769
      9          8           0        0.234835    1.113424    0.721093
     10          8           0        3.455780   -1.330905   -0.593118
     11          1           0        2.642160   -0.168990    0.949091
     12          1           0        2.827326    0.668139   -0.616205
     13          1           0        1.225563   -1.179668   -1.553052
     14          1           0        0.401365    1.130913   -1.346860
     15          1           0       -1.293274   -0.688569   -1.699683
     16          1           0       -1.900548   -0.530087    1.272592
     17          1           0       -0.557772   -2.825326    1.432902
     18          8           0       -2.515205   -2.099504   -0.006662
     19          6           0        4.813254   -1.130473   -0.175371
     20          1           0        5.384679   -1.976533   -0.570149
     21          1           0        5.220168   -0.190869   -0.584911
     22          1           0        4.891839   -1.115569    0.924874
     23          6           0       -3.649590   -2.245615    0.876064
     24          1           0       -3.348860   -2.639168    1.859577
     25          1           0       -4.153175   -1.274603    0.996000
     26          1           0       -4.315297   -2.963531    0.387371
     27          6           0       -2.442366    1.588753   -1.906686
     28          1           0       -1.578134    2.239517   -2.108627
     29          1           0       -2.615375    0.907669   -2.755294
     30          1           0       -3.329428    2.211377   -1.753464
     31          6           0        0.283257    2.512915    0.620544
     32          8           0        0.368501    3.075578   -0.445710
     33          6           0        0.203848    3.138532    1.976242
     34          1           0        0.748771    2.550225    2.723040
     35          1           0       -0.851947    3.176904    2.282225
     36          1           0        0.589260    4.161009    1.927686
 ---------------------------------------------------------------------
 Rotational constants (GHZ):      0.5102158      0.3546094      0.2519211
 Leave Link  202 at Tue Jan 10 10:08:02 2017, MaxMem= 13421772800 cpu:         0.7
 (Enter /share/apps//g09/l301.exe)
 Standard basis: 6-311+G(d,p) (5D, 7F)
 Ernie: Thresh=  0.10000D-02 Tol=  0.10000D-05 Strict=F.
 There are   505 symmetry adapted cartesian basis functions of A   symmetry.
 There are   488 symmetry adapted basis functions of A   symmetry.
   488 basis functions,   764 primitive gaussians,   505 cartesian basis functions
    66 alpha electrons       66 beta electrons
       nuclear repulsion energy      1373.1082240183 Hartrees.
 IExCor= 1009 DFT=T Ex+Corr=PBE1PBE ExCW=0 ScaHFX=  0.250000
 ScaDFX=  0.750000  0.750000  1.000000  1.000000 ScalE2=  1.000000  1.000000
 IRadAn=      0 IRanWt=     -1 IRanGd=            0 ICorTp=0 IEmpDi=131
 NAtoms=   36 NActive=   36 NUniq=   36 SFac= 1.00D+00 NAtFMM=   60 NAOKFM=F Big=F
 Integral buffers will be    131072 words long.
 Raffenetti 2 integral format.
 Two-electron integral symmetry is turned on.
 R6Disp:  Grimme-D3 Dispersion energy=       -0.0230823402 Hartrees.
 Nuclear repulsion after empirical dispersion term =     1373.0851416781 Hartrees.
 Leave Link  301 at Tue Jan 10 10:08:02 2017, MaxMem= 13421772800 cpu:         1.7
 (Enter /share/apps//g09/l302.exe)
 NPDir=0 NMtPBC=     1 NCelOv=     1 NCel=       1 NClECP=     1 NCelD=      1
         NCelK=      1 NCelE2=     1 NClLst=     1 CellRange=     0.0.
 One-electron integrals computed using PRISM.
 NBasis=   488 RedAO= T EigKep=  2.47D-06  NBF=   488
 NBsUse=   488 1.00D-06 EigRej= -1.00D+00 NBFU=   488
 Precomputing XC quadrature grid using
 IXCGrd= 4 IRadAn=           0 IRanWt=          -1 IRanGd=           0 AccXCQ= 0.00D+00.
 Generated NRdTot=       0 NPtTot=           0 NUsed=           0 NTot=          32
 NSgBfM=   500   501   503   503   503 MxSgAt=    36 MxSgA2=    36.
 Leave Link  302 at Tue Jan 10 10:08:03 2017, MaxMem= 13421772800 cpu:        11.4
 (Enter /share/apps//g09/l303.exe)
 DipDrv:  MaxL=1.
 Leave Link  303 at Tue Jan 10 10:08:03 2017, MaxMem= 13421772800 cpu:         6.0
 (Enter /share/apps//g09/l401.exe)
 ExpMin= 4.38D-02 ExpMax= 8.59D+03 ExpMxC= 1.30D+03 IAcc=2 IRadAn=         4 AccDes= 0.00D+00
 Harris functional with IExCor= 1009 and IRadAn=       4 diagonalized for initial guess.
 HarFok:  IExCor= 1009 AccDes= 0.00D+00 IRadAn=         4 IDoV= 1 UseB2=F ITyADJ=14
 ICtDFT=  3500011 ScaDFX=  1.000000  1.000000  1.000000  1.000000
 FoFCou: FMM=F IPFlag=           0 FMFlag=      100000 FMFlg1=           0
         NFxFlg=           0 DoJE=T BraDBF=F KetDBF=T FulRan=T
         wScrn=  0.000000 ICntrl=     500 IOpCl=  0 I1Cent=   200000004 NGrid=           0
         NMat0=    1 NMatS0=      1 NMatT0=    0 NMatD0=    1 NMtDS0=    0 NMtDT0=    0
 Petite list used in FoFCou.
 Harris En= -881.104994467323    
 JPrj=0 DoOrth=F DoCkMO=F.
 Leave Link  401 at Tue Jan 10 10:08:05 2017, MaxMem= 13421772800 cpu:        22.5
 (Enter /share/apps//g09/l502.exe)
 Closed shell SCF:
 Using DIIS extrapolation, IDIIS=  1040.
 Integral symmetry usage will be decided dynamically.
 Keep R1 ints in memory in canonical form, NReq=7183787934.
 IVT=      797493 IEndB=      797493 NGot= 13421772800 MDV=  6302761722
 LenX=  6302761722 LenY=  6302506192
 Requested convergence on RMS density matrix=1.00D-08 within 128 cycles.
 Requested convergence on MAX density matrix=1.00D-06.
 Requested convergence on             energy=1.00D-06.
 No special actions if energy rises.
 FoFCou: FMM=F IPFlag=           0 FMFlag=           0 FMFlg1=           0
         NFxFlg=           0 DoJE=F BraDBF=F KetDBF=F FulRan=T
         wScrn=  0.000000 ICntrl=     600 IOpCl=  0 I1Cent=           0 NGrid=           0
         NMat0=    1 NMatS0= 119316 NMatT0=    0 NMatD0=    1 NMtDS0=    0 NMtDT0=    0
 Symmetry not used in FoFCou.

 Cycle   1  Pass 1  IDiag  1:
 E= -880.595679939177    
 DIIS: error= 2.19D-02 at cycle   1 NSaved=   1.
 NSaved= 1 IEnMin= 1 EnMin= -880.595679939177     IErMin= 1 ErrMin= 2.19D-02
 ErrMax= 2.19D-02  0.00D+00 EMaxC= 1.00D-01 BMatC= 4.08D-01 BMatP= 4.08D-01
 IDIUse=3 WtCom= 7.81D-01 WtEn= 2.19D-01
 Coeff-Com:  0.100D+01
 Coeff-En:   0.100D+01
 Coeff:      0.100D+01
 Gap=     0.052 Goal=   None    Shift=    0.000
 GapD=    0.052 DampG=0.500 DampE=0.500 DampFc=0.2500 IDamp=-1.
 Damping current iteration by 2.50D-01
 RMSDP=1.93D-02 MaxDP=3.69D+00              OVMax= 7.93D-01

 Cycle   2  Pass 1  IDiag  1:
 E= -880.612614800552     Delta-E=       -0.016934861374 Rises=F Damp=T
 DIIS: error= 7.49D-03 at cycle   2 NSaved=   2.
 NSaved= 2 IEnMin= 2 EnMin= -880.612614800552     IErMin= 2 ErrMin= 7.49D-03
 ErrMax= 7.49D-03  0.00D+00 EMaxC= 1.00D-01 BMatC= 1.20D-01 BMatP= 4.08D-01
 IDIUse=3 WtCom= 9.25D-01 WtEn= 7.49D-02
 Coeff-Com: -0.258D+00 0.126D+01
 Coeff-En:   0.443D+00 0.557D+00
 Coeff:     -0.206D+00 0.121D+01
 Gap=    -0.218 Goal=   None    Shift=    0.000
 RMSDP=8.54D-03 MaxDP=1.32D+00 DE=-1.69D-02 OVMax= 4.95D-01

 Cycle   3  Pass 1  IDiag  1:
 E= -880.657976649070     Delta-E=       -0.045361848518 Rises=F Damp=F
 DIIS: error= 2.65D-02 at cycle   3 NSaved=   3.
 NSaved= 3 IEnMin= 3 EnMin= -880.657976649070     IErMin= 2 ErrMin= 7.49D-03
 ErrMax= 2.65D-02  0.00D+00 EMaxC= 1.00D-01 BMatC= 2.67D-01 BMatP= 1.20D-01
 IDIUse=2 WtCom= 0.00D+00 WtEn= 1.00D+00
 Coeff-En:   0.000D+00 0.437D+00 0.563D+00
 Coeff:      0.000D+00 0.437D+00 0.563D+00
 Gap=     0.343 Goal=   None    Shift=    0.000
 RMSDP=7.57D-03 MaxDP=1.03D+00 DE=-4.54D-02 OVMax= 2.44D-01

 Cycle   4  Pass 1  IDiag  1:
 E= -880.765308624571     Delta-E=       -0.107331975501 Rises=F Damp=F
 DIIS: error= 2.50D-02 at cycle   4 NSaved=   4.
 NSaved= 4 IEnMin= 4 EnMin= -880.765308624571     IErMin= 2 ErrMin= 7.49D-03
 ErrMax= 2.50D-02  0.00D+00 EMaxC= 1.00D-01 BMatC= 1.81D-01 BMatP= 1.20D-01
 IDIUse=2 WtCom= 0.00D+00 WtEn= 1.00D+00
 Coeff-En:   0.000D+00 0.000D+00 0.379D+00 0.621D+00
 Coeff:      0.000D+00 0.000D+00 0.379D+00 0.621D+00
 Gap=     0.169 Goal=   None    Shift=    0.000
 RMSDP=3.82D-03 MaxDP=6.60D-01 DE=-1.07D-01 OVMax= 1.52D-01

 Cycle   5  Pass 1  IDiag  1:
 E= -880.858699752218     Delta-E=       -0.093391127647 Rises=F Damp=F
 DIIS: error= 1.50D-02 at cycle   5 NSaved=   5.
 NSaved= 5 IEnMin= 5 EnMin= -880.858699752218     IErMin= 2 ErrMin= 7.49D-03
 ErrMax= 1.50D-02  0.00D+00 EMaxC= 1.00D-01 BMatC= 6.19D-02 BMatP= 1.20D-01
 IDIUse=3 WtCom= 8.50D-01 WtEn= 1.50D-01
 Coeff-Com: -0.732D-02 0.377D-01 0.189D+00 0.385D+00 0.396D+00
 Coeff-En:   0.000D+00 0.000D+00 0.000D+00 0.283D+00 0.717D+00
 Coeff:     -0.622D-02 0.321D-01 0.161D+00 0.370D+00 0.444D+00
 Gap=     0.144 Goal=   None    Shift=    0.000
 RMSDP=1.47D-03 MaxDP=1.96D-01 DE=-9.34D-02 OVMax= 5.19D-02

 Cycle   6  Pass 1  IDiag  1:
 E= -880.903518364344     Delta-E=       -0.044818612126 Rises=F Damp=F
 DIIS: error= 1.03D-03 at cycle   6 NSaved=   6.
 NSaved= 6 IEnMin= 6 EnMin= -880.903518364344     IErMin= 6 ErrMin= 1.03D-03
 ErrMax= 1.03D-03  0.00D+00 EMaxC= 1.00D-01 BMatC= 1.45D-03 BMatP= 6.19D-02
 IDIUse=3 WtCom= 9.90D-01 WtEn= 1.03D-02
 Coeff-Com: -0.289D-01 0.272D-01-0.640D-02 0.507D-01 0.193D+00 0.765D+00
 Coeff-En:   0.000D+00 0.000D+00 0.000D+00 0.000D+00 0.000D+00 0.100D+01
 Coeff:     -0.286D-01 0.270D-01-0.634D-02 0.502D-01 0.191D+00 0.767D+00
 Gap=     0.143 Goal=   None    Shift=    0.000
 RMSDP=3.58D-04 MaxDP=7.70D-02 DE=-4.48D-02 OVMax= 6.76D-03

 Cycle   7  Pass 1  IDiag  1:
 E= -880.904555995848     Delta-E=       -0.001037631504 Rises=F Damp=F
 DIIS: error= 8.50D-04 at cycle   7 NSaved=   7.
 NSaved= 7 IEnMin= 7 EnMin= -880.904555995848     IErMin= 7 ErrMin= 8.50D-04
 ErrMax= 8.50D-04  0.00D+00 EMaxC= 1.00D-01 BMatC= 2.64D-04 BMatP= 1.45D-03
 IDIUse=3 WtCom= 9.92D-01 WtEn= 8.50D-03
 Coeff-Com: -0.245D-01 0.263D-01-0.171D-01 0.340D-02 0.901D-01 0.461D+00
 Coeff-Com:  0.460D+00
 Coeff-En:   0.000D+00 0.000D+00 0.000D+00 0.000D+00 0.000D+00 0.000D+00
 Coeff-En:   0.100D+01
 Coeff:     -0.243D-01 0.261D-01-0.169D-01 0.337D-02 0.893D-01 0.457D+00
 Coeff:      0.465D+00
 Gap=     0.141 Goal=   None    Shift=    0.000
 RMSDP=2.02D-04 MaxDP=4.02D-02 DE=-1.04D-03 OVMax= 3.36D-03

 Cycle   8  Pass 1  IDiag  1:
 E= -880.904736118957     Delta-E=       -0.000180123109 Rises=F Damp=F
 DIIS: error= 2.80D-04 at cycle   8 NSaved=   8.
 NSaved= 8 IEnMin= 8 EnMin= -880.904736118957     IErMin= 8 ErrMin= 2.80D-04
 ErrMax= 2.80D-04  0.00D+00 EMaxC= 1.00D-01 BMatC= 3.08D-05 BMatP= 2.64D-04
 IDIUse=3 WtCom= 9.97D-01 WtEn= 2.80D-03
 Coeff-Com: -0.128D-01 0.159D-01-0.980D-02-0.229D-02 0.247D-01 0.124D+00
 Coeff-Com:  0.200D+00 0.660D+00
 Coeff-En:   0.000D+00 0.000D+00 0.000D+00 0.000D+00 0.000D+00 0.000D+00
 Coeff-En:   0.000D+00 0.100D+01
 Coeff:     -0.128D-01 0.159D-01-0.977D-02-0.229D-02 0.246D-01 0.124D+00
 Coeff:      0.200D+00 0.661D+00
 Gap=     0.141 Goal=   None    Shift=    0.000
 RMSDP=4.72D-05 MaxDP=6.29D-03 DE=-1.80D-04 OVMax= 7.89D-04

 Cycle   9  Pass 1  IDiag  1:
 E= -880.904758192132     Delta-E=       -0.000022073175 Rises=F Damp=F
 DIIS: error= 1.34D-04 at cycle   9 NSaved=   9.
 NSaved= 9 IEnMin= 9 EnMin= -880.904758192132     IErMin= 9 ErrMin= 1.34D-04
 ErrMax= 1.34D-04  0.00D+00 EMaxC= 1.00D-01 BMatC= 8.39D-06 BMatP= 3.08D-05
 IDIUse=3 WtCom= 9.99D-01 WtEn= 1.34D-03
 Coeff-Com: -0.595D-02 0.807D-02-0.444D-02-0.111D-02 0.368D-02 0.503D-02
 Coeff-Com:  0.373D-01 0.284D+00 0.673D+00
 Coeff-En:   0.000D+00 0.000D+00 0.000D+00 0.000D+00 0.000D+00 0.000D+00
 Coeff-En:   0.000D+00 0.000D+00 0.100D+01
 Coeff:     -0.594D-02 0.806D-02-0.443D-02-0.111D-02 0.368D-02 0.502D-02
 Coeff:      0.372D-01 0.284D+00 0.673D+00
 Gap=     0.140 Goal=   None    Shift=    0.000
 RMSDP=3.86D-05 MaxDP=7.99D-03 DE=-2.21D-05 OVMax= 4.68D-04

 Cycle  10  Pass 1  IDiag  1:
 E= -880.904765482985     Delta-E=       -0.000007290853 Rises=F Damp=F
 DIIS: error= 7.92D-05 at cycle  10 NSaved=  10.
 NSaved=10 IEnMin=10 EnMin= -880.904765482985     IErMin=10 ErrMin= 7.92D-05
 ErrMax= 7.92D-05  0.00D+00 EMaxC= 1.00D-01 BMatC= 1.92D-06 BMatP= 8.39D-06
 IDIUse=1 WtCom= 1.00D+00 WtEn= 0.00D+00
 Coeff-Com: -0.962D-03 0.145D-02-0.668D-03 0.379D-03-0.233D-02-0.248D-01
 Coeff-Com: -0.331D-01-0.739D-01 0.274D+00 0.860D+00
 Coeff:     -0.962D-03 0.145D-02-0.668D-03 0.379D-03-0.233D-02-0.248D-01
 Coeff:     -0.331D-01-0.739D-01 0.274D+00 0.860D+00
 Gap=     0.140 Goal=   None    Shift=    0.000
 RMSDP=1.94D-05 MaxDP=3.44D-03 DE=-7.29D-06 OVMax= 3.16D-04

 Cycle  11  Pass 1  IDiag  1:
 E= -880.904767391392     Delta-E=       -0.000001908407 Rises=F Damp=F
 DIIS: error= 1.30D-05 at cycle  11 NSaved=  11.
 NSaved=11 IEnMin=11 EnMin= -880.904767391392     IErMin=11 ErrMin= 1.30D-05
 ErrMax= 1.30D-05  0.00D+00 EMaxC= 1.00D-01 BMatC= 1.00D-07 BMatP= 1.92D-06
 IDIUse=1 WtCom= 1.00D+00 WtEn= 0.00D+00
 Coeff-Com:  0.630D-04-0.486D-04 0.396D-04 0.390D-03-0.125D-02-0.120D-01
 Coeff-Com: -0.203D-01-0.756D-01 0.421D-01 0.460D+00 0.607D+00
 Coeff:      0.630D-04-0.486D-04 0.396D-04 0.390D-03-0.125D-02-0.120D-01
 Coeff:     -0.203D-01-0.756D-01 0.421D-01 0.460D+00 0.607D+00
 Gap=     0.140 Goal=   None    Shift=    0.000
 RMSDP=5.83D-06 MaxDP=1.11D-03 DE=-1.91D-06 OVMax= 6.92D-05

 Cycle  12  Pass 1  IDiag  1:
 E= -880.904767480278     Delta-E=       -0.000000088886 Rises=F Damp=F
 DIIS: error= 2.73D-06 at cycle  12 NSaved=  12.
 NSaved=12 IEnMin=12 EnMin= -880.904767480278     IErMin=12 ErrMin= 2.73D-06
 ErrMax= 2.73D-06  0.00D+00 EMaxC= 1.00D-01 BMatC= 5.97D-09 BMatP= 1.00D-07
 IDIUse=1 WtCom= 1.00D+00 WtEn= 0.00D+00
 Coeff-Com:  0.627D-04-0.825D-04 0.433D-04 0.147D-03-0.162D-03-0.217D-02
 Coeff-Com: -0.473D-02-0.230D-01-0.815D-02 0.125D+00 0.290D+00 0.623D+00
 Coeff:      0.627D-04-0.825D-04 0.433D-04 0.147D-03-0.162D-03-0.217D-02
 Coeff:     -0.473D-02-0.230D-01-0.815D-02 0.125D+00 0.290D+00 0.623D+00
 Gap=     0.140 Goal=   None    Shift=    0.000
 RMSDP=6.54D-07 MaxDP=8.61D-05 DE=-8.89D-08 OVMax= 1.31D-05

 Cycle  13  Pass 1  IDiag  1:
 E= -880.904767484498     Delta-E=       -0.000000004220 Rises=F Damp=F
 DIIS: error= 9.99D-07 at cycle  13 NSaved=  13.
 NSaved=13 IEnMin=13 EnMin= -880.904767484498     IErMin=13 ErrMin= 9.99D-07
 ErrMax= 9.99D-07  0.00D+00 EMaxC= 1.00D-01 BMatC= 6.04D-10 BMatP= 5.97D-09
 IDIUse=1 WtCom= 1.00D+00 WtEn= 0.00D+00
 Coeff-Com:  0.990D-05-0.139D-04 0.102D-04 0.297D-04 0.279D-04-0.889D-04
 Coeff-Com: -0.588D-03-0.419D-02-0.419D-02 0.261D-01 0.860D-01 0.253D+00
 Coeff-Com:  0.644D+00
 Coeff:      0.990D-05-0.139D-04 0.102D-04 0.297D-04 0.279D-04-0.889D-04
 Coeff:     -0.588D-03-0.419D-02-0.419D-02 0.261D-01 0.860D-01 0.253D+00
 Coeff:      0.644D+00
 Gap=     0.140 Goal=   None    Shift=    0.000
 RMSDP=3.07D-07 MaxDP=4.53D-05 DE=-4.22D-09 OVMax= 4.69D-06

 Cycle  14  Pass 1  IDiag  1:
 E= -880.904767485004     Delta-E=       -0.000000000506 Rises=F Damp=F
 DIIS: error= 3.75D-07 at cycle  14 NSaved=  14.
 NSaved=14 IEnMin=14 EnMin= -880.904767485004     IErMin=14 ErrMin= 3.75D-07
 ErrMax= 3.75D-07  0.00D+00 EMaxC= 1.00D-01 BMatC= 8.10D-11 BMatP= 6.04D-10
 IDIUse=1 WtCom= 1.00D+00 WtEn= 0.00D+00
 Coeff-Com:  0.922D-06-0.151D-05 0.384D-06 0.475D-06 0.333D-04 0.182D-03
 Coeff-Com:  0.260D-03 0.806D-03-0.304D-03-0.194D-02 0.677D-02 0.421D-01
 Coeff-Com:  0.339D+00 0.613D+00
 Coeff:      0.922D-06-0.151D-05 0.384D-06 0.475D-06 0.333D-04 0.182D-03
 Coeff:      0.260D-03 0.806D-03-0.304D-03-0.194D-02 0.677D-02 0.421D-01
 Coeff:      0.339D+00 0.613D+00
 Gap=     0.140 Goal=   None    Shift=    0.000
 RMSDP=1.31D-07 MaxDP=2.83D-05 DE=-5.06D-10 OVMax= 2.07D-06

 Cycle  15  Pass 1  IDiag  1:
 E= -880.904767485111     Delta-E=       -0.000000000107 Rises=F Damp=F
 DIIS: error= 1.16D-07 at cycle  15 NSaved=  15.
 NSaved=15 IEnMin=15 EnMin= -880.904767485111     IErMin=15 ErrMin= 1.16D-07
 ErrMax= 1.16D-07  0.00D+00 EMaxC= 1.00D-01 BMatC= 7.20D-12 BMatP= 8.10D-11
 IDIUse=1 WtCom= 1.00D+00 WtEn= 0.00D+00
 Coeff-Com:  0.455D-06-0.909D-06-0.430D-06-0.163D-05 0.166D-04 0.105D-03
 Coeff-Com:  0.193D-03 0.742D-03 0.263D-03-0.323D-02-0.279D-02 0.298D-02
 Coeff-Com:  0.134D+00 0.326D+00 0.542D+00
 Coeff:      0.455D-06-0.909D-06-0.430D-06-0.163D-05 0.166D-04 0.105D-03
 Coeff:      0.193D-03 0.742D-03 0.263D-03-0.323D-02-0.279D-02 0.298D-02
 Coeff:      0.134D+00 0.326D+00 0.542D+00
 Gap=     0.140 Goal=   None    Shift=    0.000
 RMSDP=2.51D-08 MaxDP=2.57D-06 DE=-1.07D-10 OVMax= 5.31D-07

 Cycle  16  Pass 1  IDiag  1:
 E= -880.904767485075     Delta-E=        0.000000000036 Rises=F Damp=F
 DIIS: error= 4.39D-08 at cycle  16 NSaved=  16.
 NSaved=16 IEnMin=15 EnMin= -880.904767485111     IErMin=16 ErrMin= 4.39D-08
 ErrMax= 4.39D-08  0.00D+00 EMaxC= 1.00D-01 BMatC= 1.68D-12 BMatP= 7.20D-12
 IDIUse=1 WtCom= 1.00D+00 WtEn= 0.00D+00
 Coeff-Com:  0.376D-06-0.508D-06-0.210D-06-0.993D-06 0.308D-05 0.224D-04
 Coeff-Com:  0.624D-04 0.246D-03 0.292D-03-0.146D-02-0.266D-02-0.639D-02
 Coeff-Com:  0.149D-01 0.741D-01 0.341D+00 0.580D+00
 Coeff:      0.376D-06-0.508D-06-0.210D-06-0.993D-06 0.308D-05 0.224D-04
 Coeff:      0.624D-04 0.246D-03 0.292D-03-0.146D-02-0.266D-02-0.639D-02
 Coeff:      0.149D-01 0.741D-01 0.341D+00 0.580D+00
 Gap=     0.140 Goal=   None    Shift=    0.000
 RMSDP=1.13D-08 MaxDP=1.35D-06 DE= 3.59D-11 OVMax= 5.00D-07

 Cycle  17  Pass 1  IDiag  1:
 E= -880.904767485110     Delta-E=       -0.000000000035 Rises=F Damp=F
 DIIS: error= 1.06D-08 at cycle  17 NSaved=  17.
 NSaved=17 IEnMin=15 EnMin= -880.904767485111     IErMin=17 ErrMin= 1.06D-08
 ErrMax= 1.06D-08  0.00D+00 EMaxC= 1.00D-01 BMatC= 1.21D-13 BMatP= 1.68D-12
 IDIUse=1 WtCom= 1.00D+00 WtEn= 0.00D+00
 Coeff-Com:  0.388D-06-0.548D-06-0.270D-07-0.317D-06-0.239D-07 0.211D-05
 Coeff-Com:  0.155D-04 0.518D-04 0.115D-03-0.462D-03-0.995D-03-0.329D-02
 Coeff-Com: -0.581D-02 0.283D-02 0.911D-01 0.255D+00 0.661D+00
 Coeff:      0.388D-06-0.548D-06-0.270D-07-0.317D-06-0.239D-07 0.211D-05
 Coeff:      0.155D-04 0.518D-04 0.115D-03-0.462D-03-0.995D-03-0.329D-02
 Coeff:     -0.581D-02 0.283D-02 0.911D-01 0.255D+00 0.661D+00
 Gap=     0.140 Goal=   None    Shift=    0.000
 RMSDP=9.38D-09 MaxDP=1.89D-06 DE=-3.50D-11 OVMax= 1.28D-07

 Cycle  18  Pass 1  IDiag  1:
 E= -880.904767485107     Delta-E=        0.000000000004 Rises=F Damp=F
 DIIS: error= 6.11D-09 at cycle  18 NSaved=  18.
 NSaved=18 IEnMin=15 EnMin= -880.904767485111     IErMin=18 ErrMin= 6.11D-09
 ErrMax= 6.11D-09  0.00D+00 EMaxC= 1.00D-01 BMatC= 2.51D-14 BMatP= 1.21D-13
 IDIUse=1 WtCom= 1.00D+00 WtEn= 0.00D+00
 Coeff-Com:  0.583D-07-0.665D-07 0.214D-07-0.476D-07-0.596D-06-0.319D-05
 Coeff-Com: -0.308D-05-0.192D-04 0.204D-04 0.706D-04 0.777D-04-0.302D-03
 Coeff-Com: -0.466D-02-0.102D-01-0.213D-01 0.203D-01 0.291D+00 0.725D+00
 Coeff:      0.583D-07-0.665D-07 0.214D-07-0.476D-07-0.596D-06-0.319D-05
 Coeff:     -0.308D-05-0.192D-04 0.204D-04 0.706D-04 0.777D-04-0.302D-03
 Coeff:     -0.466D-02-0.102D-01-0.213D-01 0.203D-01 0.291D+00 0.725D+00
 Gap=     0.140 Goal=   None    Shift=    0.000
 RMSDP=4.74D-09 MaxDP=7.88D-07 DE= 3.64D-12 OVMax= 5.09D-08

 SCF Done:  E(RPBE1PBE) =  -880.904767485     A.U. after   18 cycles
            NFock= 18  Conv=0.47D-08     -V/T= 2.0043
 KE= 8.771661720911D+02 PE=-4.789417750954D+03 EE= 1.658261669700D+03
 Leave Link  502 at Tue Jan 10 10:12:23 2017, MaxMem= 13421772800 cpu:      1064.3
 (Enter /share/apps//g09/l601.exe)
 Copying SCF densities to generalized density rwf, IOpCl= 0 IROHF=0.

 **********************************************************************

            Population analysis using the SCF density.

 **********************************************************************

 Orbital symmetries:
       Occupied  (A) (A) (A) (A) (A) (A) (A) (A) (A) (A) (A) (A)
                 (A) (A) (A) (A) (A) (A) (A) (A) (A) (A) (A) (A)
                 (A) (A) (A) (A) (A) (A) (A) (A) (A) (A) (A) (A)
                 (A) (A) (A) (A) (A) (A) (A) (A) (A) (A) (A) (A)
                 (A) (A) (A) (A) (A) (A) (A) (A) (A) (A) (A) (A)
                 (A) (A) (A) (A) (A) (A)
       Virtual   (A) (A) (A) (A) (A) (A) (A) (A) (A) (A) (A) (A)
                 (A) (A) (A) (A) (A) (A) (A) (A) (A) (A) (A) (A)
                 (A) (A) (A) (A) (A) (A) (A) (A) (A) (A) (A) (A)
                 (A) (A) (A) (A) (A) (A) (A) (A) (A) (A) (A) (A)
                 (A) (A) (A) (A) (A) (A) (A) (A) (A) (A) (A) (A)
                 (A) (A) (A) (A) (A) (A) (A) (A) (A) (A) (A) (A)
                 (A) (A) (A) (A) (A) (A) (A) (A) (A) (A) (A) (A)
                 (A) (A) (A) (A) (A) (A) (A) (A) (A) (A) (A) (A)
                 (A) (A) (A) (A) (A) (A) (A) (A) (A) (A) (A) (A)
                 (A) (A) (A) (A) (A) (A) (A) (A) (A) (A) (A) (A)
                 (A) (A) (A) (A) (A) (A) (A) (A) (A) (A) (A) (A)
                 (A) (A) (A) (A) (A) (A) (A) (A) (A) (A) (A) (A)
                 (A) (A) (A) (A) (A) (A) (A) (A) (A) (A) (A) (A)
                 (A) (A) (A) (A) (A) (A) (A) (A) (A) (A) (A) (A)
                 (A) (A) (A) (A) (A) (A) (A) (A) (A) (A) (A) (A)
                 (A) (A) (A) (A) (A) (A) (A) (A) (A) (A) (A) (A)
                 (A) (A) (A) (A) (A) (A) (A) (A) (A) (A) (A) (A)
                 (A) (A) (A) (A) (A) (A) (A) (A) (A) (A) (A) (A)
                 (A) (A) (A) (A) (A) (A) (A) (A) (A) (A) (A) (A)
                 (A) (A) (A) (A) (A) (A) (A) (A) (A) (A) (A) (A)
                 (A) (A) (A) (A) (A) (A) (A) (A) (A) (A) (A) (A)
                 (A) (A) (A) (A) (A) (A) (A) (A) (A) (A) (A) (A)
                 (A) (A) (A) (A) (A) (A) (A) (A) (A) (A) (A) (A)
                 (A) (A) (A) (A) (A) (A) (A) (A) (A) (A) (A) (A)
                 (A) (A) (A) (A) (A) (A) (A) (A) (A) (A) (A) (A)
                 (A) (A) (A) (A) (A) (A) (A) (A) (A) (A) (A) (A)
                 (A) (A) (A) (A) (A) (A) (A) (A) (A) (A) (A) (A)
                 (A) (A) (A) (A) (A) (A) (A) (A) (A) (A) (A) (A)
                 (A) (A) (A) (A) (A) (A) (A) (A) (A) (A) (A) (A)
                 (A) (A) (A) (A) (A) (A) (A) (A) (A) (A) (A) (A)
                 (A) (A) (A) (A) (A) (A) (A) (A) (A) (A) (A) (A)
                 (A) (A) (A) (A) (A) (A) (A) (A) (A) (A) (A) (A)
                 (A) (A) (A) (A) (A) (A) (A) (A) (A) (A) (A) (A)
                 (A) (A) (A) (A) (A) (A) (A) (A) (A) (A) (A) (A)
                 (A) (A) (A) (A) (A) (A) (A) (A) (A) (A) (A) (A)
                 (A) (A)
 The electronic state is 1-A.
 Alpha  occ. eigenvalues --  -19.49591 -19.39431 -19.38698 -19.35756 -19.34164
 Alpha  occ. eigenvalues --  -19.33197 -10.54865 -10.49305 -10.47682 -10.46966
 Alpha  occ. eigenvalues --  -10.45232 -10.44922 -10.42451 -10.40551 -10.38454
 Alpha  occ. eigenvalues --  -10.37491 -10.35122  -1.35383  -1.27299  -1.24070
 Alpha  occ. eigenvalues --   -1.21202  -1.19956  -1.18888  -1.01507  -0.99764
 Alpha  occ. eigenvalues --   -0.91732  -0.89647  -0.87058  -0.85907  -0.83087
 Alpha  occ. eigenvalues --   -0.80904  -0.78157  -0.77775  -0.73662  -0.72058
 Alpha  occ. eigenvalues --   -0.70719  -0.69082  -0.68172  -0.65360  -0.64285
 Alpha  occ. eigenvalues --   -0.63870  -0.63715  -0.62640  -0.61988  -0.60887
 Alpha  occ. eigenvalues --   -0.60848  -0.59484  -0.59143  -0.58017  -0.56483
 Alpha  occ. eigenvalues --   -0.55750  -0.54879  -0.53927  -0.53462  -0.53407
 Alpha  occ. eigenvalues --   -0.52373  -0.51651  -0.51112  -0.50026  -0.47972
 Alpha  occ. eigenvalues --   -0.47061  -0.46423  -0.44587  -0.43248  -0.41961
 Alpha  occ. eigenvalues --   -0.40557
 Alpha virt. eigenvalues --   -0.26558  -0.12827  -0.11851  -0.11545  -0.10353
 Alpha virt. eigenvalues --   -0.09405  -0.08605  -0.07549  -0.07420  -0.06827
 Alpha virt. eigenvalues --   -0.06444  -0.06138  -0.05609  -0.04896  -0.04722
 Alpha virt. eigenvalues --   -0.04170  -0.03878  -0.03179  -0.02997  -0.02604
 Alpha virt. eigenvalues --   -0.02465  -0.02033  -0.01376  -0.01156  -0.00997
 Alpha virt. eigenvalues --   -0.00488  -0.00088   0.00292   0.00866   0.01309
 Alpha virt. eigenvalues --    0.01451   0.02176   0.02368   0.02733   0.03125
 Alpha virt. eigenvalues --    0.03715   0.04149   0.04409   0.04592   0.05066
 Alpha virt. eigenvalues --    0.05620   0.05668   0.05817   0.06342   0.06658
 Alpha virt. eigenvalues --    0.07561   0.07773   0.08319   0.08568   0.08671
 Alpha virt. eigenvalues --    0.09081   0.09401   0.09582   0.10372   0.10549
 Alpha virt. eigenvalues --    0.10707   0.10916   0.11082   0.11606   0.12003
 Alpha virt. eigenvalues --    0.12175   0.12482   0.13073   0.13610   0.14104
 Alpha virt. eigenvalues --    0.14608   0.14886   0.15283   0.15455   0.16316
 Alpha virt. eigenvalues --    0.16673   0.16890   0.17335   0.17503   0.18309
 Alpha virt. eigenvalues --    0.18785   0.18833   0.19868   0.19976   0.20530
 Alpha virt. eigenvalues --    0.20839   0.21647   0.22259   0.22417   0.23419
 Alpha virt. eigenvalues --    0.23830   0.24412   0.24717   0.24987   0.25228
 Alpha virt. eigenvalues --    0.26079   0.26477   0.27322   0.27726   0.27915
 Alpha virt. eigenvalues --    0.28200   0.28930   0.29414   0.30624   0.30985
 Alpha virt. eigenvalues --    0.31731   0.32580   0.32789   0.34226   0.34810
 Alpha virt. eigenvalues --    0.35332   0.35748   0.36600   0.36936   0.37819
 Alpha virt. eigenvalues --    0.38409   0.38864   0.39571   0.40458   0.41739
 Alpha virt. eigenvalues --    0.42385   0.42567   0.43634   0.44703   0.45131
 Alpha virt. eigenvalues --    0.45318   0.46452   0.47691   0.48455   0.49390
 Alpha virt. eigenvalues --    0.50155   0.50341   0.51668   0.52274   0.52778
 Alpha virt. eigenvalues --    0.53578   0.54147   0.54257   0.54828   0.55724
 Alpha virt. eigenvalues --    0.56239   0.56310   0.56969   0.57387   0.57929
 Alpha virt. eigenvalues --    0.58572   0.58940   0.59789   0.60233   0.60813
 Alpha virt. eigenvalues --    0.61980   0.62322   0.62739   0.64126   0.64689
 Alpha virt. eigenvalues --    0.64994   0.65920   0.66211   0.67738   0.68969
 Alpha virt. eigenvalues --    0.70037   0.71776   0.75274   0.79171   0.79559
 Alpha virt. eigenvalues --    0.80641   0.83797   0.84638   0.86018   0.88649
 Alpha virt. eigenvalues --    0.89359   0.89707   0.91400   0.92573   0.93325
 Alpha virt. eigenvalues --    0.94504   0.96080   0.97158   0.98131   0.98579
 Alpha virt. eigenvalues --    0.99064   1.02062   1.03893   1.04712   1.05625
 Alpha virt. eigenvalues --    1.05889   1.08056   1.10109   1.10480   1.11207
 Alpha virt. eigenvalues --    1.13135   1.13926   1.14264   1.15669   1.16932
 Alpha virt. eigenvalues --    1.19120   1.19584   1.20097   1.21637   1.23584
 Alpha virt. eigenvalues --    1.24702   1.25703   1.27246   1.28048   1.28986
 Alpha virt. eigenvalues --    1.29811   1.31371   1.32284   1.33282   1.33978
 Alpha virt. eigenvalues --    1.34541   1.35307   1.35993   1.37031   1.38462
 Alpha virt. eigenvalues --    1.40264   1.40363   1.41532   1.42893   1.43574
 Alpha virt. eigenvalues --    1.44109   1.44633   1.44710   1.45322   1.45702
 Alpha virt. eigenvalues --    1.46784   1.47517   1.47929   1.48439   1.48905
 Alpha virt. eigenvalues --    1.49438   1.49610   1.51016   1.51089   1.52980
 Alpha virt. eigenvalues --    1.53944   1.54326   1.55381   1.56376   1.58240
 Alpha virt. eigenvalues --    1.58395   1.59257   1.60163   1.60695   1.62299
 Alpha virt. eigenvalues --    1.63488   1.63721   1.64335   1.65111   1.66873
 Alpha virt. eigenvalues --    1.67104   1.68961   1.69844   1.71107   1.72286
 Alpha virt. eigenvalues --    1.73678   1.75043   1.76920   1.77742   1.79813
 Alpha virt. eigenvalues --    1.80094   1.84335   1.84840   1.85853   1.86842
 Alpha virt. eigenvalues --    1.87553   1.89470   1.90464   1.92693   1.94043
 Alpha virt. eigenvalues --    1.96379   1.97344   1.98609   1.99333   2.01025
 Alpha virt. eigenvalues --    2.01621   2.02887   2.03766   2.04979   2.05897
 Alpha virt. eigenvalues --    2.07126   2.08280   2.09399   2.10133   2.13645
 Alpha virt. eigenvalues --    2.14346   2.15615   2.17739   2.22745   2.24281
 Alpha virt. eigenvalues --    2.26110   2.31199   2.31810   2.32873   2.35042
 Alpha virt. eigenvalues --    2.36131   2.36597   2.37713   2.38261   2.39237
 Alpha virt. eigenvalues --    2.39877   2.41270   2.41870   2.42632   2.42905
 Alpha virt. eigenvalues --    2.43384   2.44518   2.44748   2.46274   2.46766
 Alpha virt. eigenvalues --    2.47654   2.50026   2.50634   2.51199   2.52161
 Alpha virt. eigenvalues --    2.53222   2.54359   2.56702   2.57647   2.58983
 Alpha virt. eigenvalues --    2.60989   2.62744   2.64685   2.65080   2.69000
 Alpha virt. eigenvalues --    2.73264   2.74528   2.75042   2.76864   2.77089
 Alpha virt. eigenvalues --    2.77647   2.79603   2.82138   2.82435   2.84022
 Alpha virt. eigenvalues --    2.85917   2.86843   2.88586   2.89117   2.90681
 Alpha virt. eigenvalues --    2.92212   2.92267   2.93442   2.95948   2.96691
 Alpha virt. eigenvalues --    2.98521   3.00337   3.01502   3.03404   3.04812
 Alpha virt. eigenvalues --    3.06582   3.08630   3.09382   3.11930   3.12571
 Alpha virt. eigenvalues --    3.12844   3.14052   3.14459   3.17179   3.18790
 Alpha virt. eigenvalues --    3.22590   3.25744   3.29072   3.33522   3.40801
 Alpha virt. eigenvalues --    3.45407   3.57219   3.64644   3.65996   3.68360
 Alpha virt. eigenvalues --    3.69384   3.69769   3.69897   3.70385   3.70816
 Alpha virt. eigenvalues --    3.72678   3.75542   3.77014   3.81639   3.84867
 Alpha virt. eigenvalues --    3.90613   3.91885   3.94234   3.96421   3.98992
 Alpha virt. eigenvalues --    4.01996   4.03092   4.04904   4.11199   4.13422
 Alpha virt. eigenvalues --    4.16839   4.23924   4.87480   4.98334   4.98921
 Alpha virt. eigenvalues --    5.02286   5.05822   5.08323   5.13054   5.15050
 Alpha virt. eigenvalues --    5.26602   5.30168   5.32240   5.32950   5.51831
 Alpha virt. eigenvalues --    5.54117   5.59028   5.62208   5.63311   5.79426
 Alpha virt. eigenvalues --   23.68645  23.72226  23.75600  23.76710  23.78790
 Alpha virt. eigenvalues --   23.81376  23.83308  23.86806  23.89333  23.89782
 Alpha virt. eigenvalues --   23.93433  49.83953  49.90393  49.92609  49.94731
 Alpha virt. eigenvalues --   49.97934  50.00486
          Condensed to atoms (all electrons):
               1          2          3          4          5          6
     1  C   10.769672  -6.959434   3.401289  -1.923058   0.451598  -0.194425
     2  C   -6.959434  26.249476 -12.404430   0.589442   1.983319  -1.404811
     3  C    3.401289 -12.404430  19.527480  -5.675634  -0.745491   0.701049
     4  C   -1.923058   0.589442  -5.675634  22.010232  -9.961963   2.333516
     5  C    0.451598   1.983319  -0.745491  -9.961963  20.223978  -5.431553
     6  C   -0.194425  -1.404811   0.701049   2.333516  -5.431553   9.110747
     7  O   -0.032342  -0.068571   0.127299  -0.041597   0.028577   0.143074
     8  O    0.028523   0.011706  -0.019569  -0.082712  -0.074207   0.124996
     9  O    0.072937  -0.245709   0.338259  -0.364865  -0.012917   0.004981
    10  O   -0.155548   0.072585   0.067415   0.017222   0.003518   0.003379
    11  H    0.311568   0.137395  -0.088915  -0.015738  -0.012533   0.006247
    12  H    0.409652  -0.183566   0.083605   0.044279   0.005354   0.000565
    13  H    0.057834   0.290852   0.060095  -0.026139  -0.080676   0.037303
    14  H    0.058291  -0.138071   0.485857  -0.147816   0.085276  -0.019017
    15  H   -0.002484  -0.003506  -0.046998   0.486933  -0.151971   0.040880
    16  H    0.002311  -0.011467   0.017178   0.015430   0.368057  -0.077026
    17  H    0.002449   0.002240  -0.005960   0.024273  -0.046520   0.412523
    18  O    0.003403   0.015026   0.026217  -0.271941   0.456293  -0.150136
    19  C    0.083592  -0.383180   0.047961  -0.040874  -0.002558   0.010939
    20  H    0.035201  -0.000109   0.000559  -0.000138   0.000123  -0.000434
    21  H   -0.010096  -0.001910  -0.006235  -0.000158   0.000155  -0.000167
    22  H   -0.006713  -0.007797   0.002460   0.000077   0.000189   0.000489
    23  C    0.004721  -0.004880   0.001753  -0.050253  -0.127651  -0.108473
    24  H    0.000557   0.004081   0.003363  -0.042872   0.086623  -0.034444
    25  H   -0.000222  -0.003655  -0.005040   0.066435  -0.123731   0.031519
    26  H    0.000102   0.000516   0.000989  -0.010104   0.039440  -0.003993
    27  C    0.001248  -0.205350   0.343766  -0.057320  -0.414639   0.102348
    28  H    0.005153  -0.017800   0.065047  -0.064263  -0.016480   0.003302
    29  H   -0.001210   0.004568  -0.013440  -0.033608   0.025769   0.000905
    30  H    0.000057   0.003121   0.002497   0.038602  -0.010650  -0.001631
    31  C   -0.112974   0.133049  -0.748512  -0.317693   0.251559  -0.020308
    32  O    0.004485  -0.012521   0.171882  -0.158944   0.008885  -0.003664
    33  C    0.079911  -0.104813   0.207321  -0.207745   0.040634  -0.027069
    34  H    0.017880  -0.031846   0.012694  -0.000417  -0.007052   0.002374
    35  H   -0.006019   0.011278  -0.025874   0.013637   0.001828  -0.000623
    36  H   -0.002665   0.005127   0.002976  -0.001524   0.001099  -0.000039
               7          8          9         10         11         12
     1  C   -0.032342   0.028523   0.072937  -0.155548   0.311568   0.409652
     2  C   -0.068571   0.011706  -0.245709   0.072585   0.137395  -0.183566
     3  C    0.127299  -0.019569   0.338259   0.067415  -0.088915   0.083605
     4  C   -0.041597  -0.082712  -0.364865   0.017222  -0.015738   0.044279
     5  C    0.028577  -0.074207  -0.012917   0.003518  -0.012533   0.005354
     6  C    0.143074   0.124996   0.004981   0.003379   0.006247   0.000565
     7  O    7.674455  -0.007542   0.021607   0.025569  -0.017771   0.011257
     8  O   -0.007542   7.950656   0.025665   0.000044  -0.000003   0.000192
     9  O    0.021607   0.025665   8.414530  -0.001193   0.006758  -0.014919
    10  O    0.025569   0.000044  -0.001193   8.121089  -0.039784  -0.037077
    11  H   -0.017771  -0.000003   0.006758  -0.039784   0.494635  -0.042323
    12  H    0.011257   0.000192  -0.014919  -0.037077  -0.042323   0.514127
    13  H   -0.033821  -0.000296   0.008400   0.006378   0.003758  -0.003878
    14  H    0.005586   0.000856  -0.053379   0.000081  -0.000129   0.002818
    15  H    0.000934  -0.030638   0.012074   0.000103   0.000045  -0.000076
    16  H    0.008198  -0.007904   0.002278   0.000024   0.000055  -0.000026
    17  H   -0.048517  -0.000801  -0.000350   0.000192  -0.000169   0.000029
    18  O    0.005330   0.022798  -0.001083   0.000011  -0.000045  -0.000006
    19  C    0.000245   0.000435   0.005683   0.161200   0.021557  -0.015502
    20  H   -0.000064   0.000000  -0.000006  -0.053771  -0.000126  -0.000156
    21  H    0.000028  -0.000000  -0.000066  -0.036802  -0.004953   0.010350
    22  H    0.000537  -0.000000   0.000132  -0.044235   0.013278  -0.003937
    23  C    0.002535  -0.009950  -0.002034   0.000036  -0.000108   0.000008
    24  H   -0.000339   0.000429  -0.000079  -0.000000   0.000000  -0.000000
    25  H    0.000196  -0.000200   0.000040   0.000000  -0.000000  -0.000000
    26  H    0.000090   0.000183   0.000011   0.000000   0.000000  -0.000000
    27  C   -0.000185   0.118985  -0.012122   0.000196   0.000094  -0.000197
    28  H   -0.000037  -0.032425   0.003258   0.000001  -0.000000   0.000022
    29  H    0.000082  -0.041139   0.000771  -0.000001   0.000000  -0.000006
    30  H    0.000019  -0.061005  -0.000396   0.000000   0.000000  -0.000000
    31  C   -0.013500   0.048155   0.058911  -0.002242   0.002776   0.008149
    32  O   -0.000708   0.011750  -0.167614   0.000235   0.000588  -0.003706
    33  C    0.000134  -0.003076  -0.344164  -0.000080  -0.001772   0.000173
    34  H    0.000178   0.000250   0.008685   0.000027  -0.000281  -0.000060
    35  H   -0.000031  -0.001383  -0.004125  -0.000001   0.000023   0.000012
    36  H    0.000006   0.000018   0.012801  -0.000001   0.000015   0.000013
              13         14         15         16         17         18
     1  C    0.057834   0.058291  -0.002484   0.002311   0.002449   0.003403
     2  C    0.290852  -0.138071  -0.003506  -0.011467   0.002240   0.015026
     3  C    0.060095   0.485857  -0.046998   0.017178  -0.005960   0.026217
     4  C   -0.026139  -0.147816   0.486933   0.015430   0.024273  -0.271941
     5  C   -0.080676   0.085276  -0.151971   0.368057  -0.046520   0.456293
     6  C    0.037303  -0.019017   0.040880  -0.077026   0.412523  -0.150136
     7  O   -0.033821   0.005586   0.000934   0.008198  -0.048517   0.005330
     8  O   -0.000296   0.000856  -0.030638  -0.007904  -0.000801   0.022798
     9  O    0.008400  -0.053379   0.012074   0.002278  -0.000350  -0.001083
    10  O    0.006378   0.000081   0.000103   0.000024   0.000192   0.000011
    11  H    0.003758  -0.000129   0.000045   0.000055  -0.000169  -0.000045
    12  H   -0.003878   0.002818  -0.000076  -0.000026   0.000029  -0.000006
    13  H    0.380974  -0.002056   0.002440   0.000084  -0.000296   0.000355
    14  H   -0.002056   0.397185  -0.008723  -0.000667   0.000049  -0.000184
    15  H    0.002440  -0.008723   0.451854   0.003817  -0.000277  -0.003936
    16  H    0.000084  -0.000667   0.003817   0.400247  -0.001807  -0.029266
    17  H   -0.000296   0.000049  -0.000277  -0.001807   0.419415   0.000681
    18  O    0.000355  -0.000184  -0.003936  -0.029266   0.000681   7.910467
    19  C    0.003740   0.000868  -0.000071   0.000032   0.000034  -0.000154
    20  H   -0.000098  -0.000002   0.000000   0.000000  -0.000000   0.000000
    21  H   -0.000082   0.000016   0.000000  -0.000000   0.000001   0.000000
    22  H    0.000163   0.000001   0.000000   0.000000  -0.000002  -0.000001
    23  C   -0.000725   0.000252   0.002113   0.020137  -0.000232   0.158017
    24  H   -0.000006   0.000001  -0.000054  -0.004796   0.000447  -0.050066
    25  H    0.000002   0.000004   0.000007   0.008591  -0.000080  -0.028789
    26  H    0.000000  -0.000000   0.000058   0.000261  -0.000001  -0.049046
    27  C    0.001335  -0.002952   0.015296   0.002358  -0.000197  -0.006282
    28  H    0.000035   0.004136  -0.004124  -0.000069  -0.000002  -0.000018
    29  H    0.000046  -0.000686   0.015901   0.000195   0.000000   0.000012
    30  H    0.000001  -0.000325  -0.000171  -0.000017  -0.000000   0.000132
    31  C    0.003353   0.023911  -0.002621  -0.000227  -0.000690   0.001911
    32  O    0.000415   0.009896   0.000132   0.000303  -0.000011  -0.000089
    33  C    0.000729   0.002090   0.001165   0.001242  -0.000195   0.000497
    34  H    0.000005  -0.000135  -0.000003   0.000112   0.000001   0.000001
    35  H   -0.000001  -0.000000  -0.000000   0.000030   0.000001   0.000009
    36  H   -0.000001   0.000050   0.000001  -0.000006   0.000000   0.000001
              19         20         21         22         23         24
     1  C    0.083592   0.035201  -0.010096  -0.006713   0.004721   0.000557
     2  C   -0.383180  -0.000109  -0.001910  -0.007797  -0.004880   0.004081
     3  C    0.047961   0.000559  -0.006235   0.002460   0.001753   0.003363
     4  C   -0.040874  -0.000138  -0.000158   0.000077  -0.050253  -0.042872
     5  C   -0.002558   0.000123   0.000155   0.000189  -0.127651   0.086623
     6  C    0.010939  -0.000434  -0.000167   0.000489  -0.108473  -0.034444
     7  O    0.000245  -0.000064   0.000028   0.000537   0.002535  -0.000339
     8  O    0.000435   0.000000  -0.000000  -0.000000  -0.009950   0.000429
     9  O    0.005683  -0.000006  -0.000066   0.000132  -0.002034  -0.000079
    10  O    0.161200  -0.053771  -0.036802  -0.044235   0.000036  -0.000000
    11  H    0.021557  -0.000126  -0.004953   0.013278  -0.000108   0.000000
    12  H   -0.015502  -0.000156   0.010350  -0.003937   0.000008  -0.000000
    13  H    0.003740  -0.000098  -0.000082   0.000163  -0.000725  -0.000006
    14  H    0.000868  -0.000002   0.000016   0.000001   0.000252   0.000001
    15  H   -0.000071   0.000000   0.000000   0.000000   0.002113  -0.000054
    16  H    0.000032   0.000000  -0.000000   0.000000   0.020137  -0.004796
    17  H    0.000034  -0.000000   0.000001  -0.000002  -0.000232   0.000447
    18  O   -0.000154   0.000000   0.000000  -0.000001   0.158017  -0.050066
    19  C    5.174946   0.396031   0.421886   0.413055   0.000121   0.000005
    20  H    0.396031   0.472511  -0.021386  -0.020832  -0.000000  -0.000000
[...]
 4190,-0.00011354,-0.00020674,0.00006964,0.00042093,-0.00007011,-0.0001
 0893,-0.00015278,-0.00006500,0.00006377,0.00016058,0.00003211,0.000004
 58,-0.00004647,-0.00060935,0.00260654,0.00163116,-0.00044255,0.0003282
 0,-0.00257962,0.00034825,-0.00097809,-0.00022519,-0.00010225,-0.000140
 50,-0.00012900,0.05056080,0.16779323,0.99283730,0.00069792,0.00059777,
 0.00006996,0.00109179,0.00102134,0.00080992,-0.00189083,0.00117768,-0.
 00615051,-0.00291899,-0.00163727,-0.00099264,0.00026147,0.00046229,-0.
 00005070,-0.00057713,0.00079708,0.00035776,0.00032052,-0.00092048,-0.0
 0050651,0.00188384,0.00198679,0.00050146,0.00737836,-0.04341842,-0.020
 73506,-0.00086896,-0.00022144,-0.00000445,0.00008623,-0.00008329,0.000
 07994,0.00022092,-0.00018142,-0.00014684,-0.00023668,-0.00027850,-0.00
 014212,-0.00222364,-0.00096037,-0.00029206,0.00039426,0.00000686,-0.00
 008765,-0.00035275,0.00021457,0.00028861,0.00008390,0.00003440,0.00000
 025,0.00075740,-0.00078173,-0.00004303,0.00038124,-0.00021525,0.000180
 35,-0.00004877,-0.00000412,-0.00000602,0.00000426,0.00004353,-0.000027
 52,-0.00000813,0.00003254,-0.00004156,-0.00061320,-0.00006019,0.000205
 49,0.00004195,0.00003533,-0.00002445,0.00009067,-0.00001751,-0.0000434
 1,0.00007103,-0.00000111,-0.00001875,-0.00002113,-0.00100715,-0.002126
 55,-0.00094619,0.00077875,0.00099738,-0.00029480,0.00086960,0.00020576
 ,0.00019883,-0.00004199,0.00017504,-0.10288940,-0.06128845,-0.10349475
 ,0.07598009,0.00101573,-0.00063094,-0.00093701,0.00203909,0.00048870,-
 0.00022397,0.00056987,0.00232625,-0.01358330,-0.00270637,0.00037019,0.
 00092976,-0.00034748,0.00104541,-0.00001950,-0.00011756,0.00149578,0.0
 0040530,-0.00043827,-0.00094887,-0.00046012,0.00246104,0.00097477,0.00
 165502,-0.04141447,-0.07076272,-0.04873284,-0.00159290,0.00051004,0.00
 024194,0.00019001,-0.00016671,0.00046151,-0.00021201,-0.00008165,0.000
 21135,-0.00033998,-0.00051426,-0.00020723,-0.00099647,-0.00443539,0.00
 050007,0.00065104,-0.00059249,0.00003959,-0.00048540,0.00045641,0.0004
 3423,0.00002791,0.00003068,0.00007339,0.00124383,-0.00126766,-0.000193
 88,0.00076379,-0.00068055,0.00020914,-0.00010871,0.00004165,-0.0000122
 0,-0.00004886,0.00014482,0.00003282,-0.00001999,0.00005875,-0.00007352
 ,-0.00093762,0.00003354,0.00047571,0.00004139,0.00004259,-0.00008223,0
 .00002341,0.00005639,-0.00001912,0.00009001,-0.00003701,-0.00002940,-0
 .00047213,-0.00114337,-0.00128688,0.00045909,-0.00138301,0.00061758,0.
 00003450,0.00014764,0.00013131,0.00026406,-0.00014376,0.00010460,-0.06
 187620,-0.23758482,-0.27282400,0.10566807,0.29544392,0.00046966,-0.000
 68974,-0.00127895,-0.00180521,-0.00136065,0.00331867,0.00551585,0.0073
 6415,-0.01465895,-0.00383574,-0.00210356,0.00292825,-0.00073965,0.0005
 5817,-0.00051253,0.00074719,0.00062881,-0.00012651,0.00098171,0.002329
 38,0.00112196,0.00236632,0.00247983,0.00134461,-0.02654929,-0.06221493
 ,0.00544926,-0.00035079,0.00028095,0.00057772,0.00037758,0.00013603,0.
 00047700,-0.00025865,0.00017901,0.00013064,-0.00097477,-0.00070812,-0.
 00010857,-0.00126506,-0.00110538,0.00413879,0.00114754,-0.00084293,0.0
 0010005,-0.00049179,0.00057131,0.00013460,-0.00003393,0.00016112,-0.00
 008536,0.00055599,-0.00040657,0.00050550,0.00018576,-0.00026998,-0.000
 18428,-0.00002836,0.00001053,0.00001083,-0.00002524,0.00007133,0.00001
 573,0.00000794,0.00004956,0.00004725,-0.00031023,-0.00002997,-0.000086
 22,0.00006096,0.00009026,0.00006591,0.00007034,-0.00002705,-0.00011692
 ,0.00002081,-0.00001668,0.00001656,-0.00036473,-0.00222583,-0.00332692
 ,-0.00028005,0.00067237,0.00144687,-0.00043114,0.00100318,0.00038491,0
 .00002591,0.00025735,0.00017989,-0.09391195,-0.25107522,-0.63569119,0.
 12672622,0.32919400,0.68628250,0.00010290,-0.00003545,0.00005040,0.000
 13384,-0.00007591,-0.00034297,0.00315473,-0.00222496,-0.00213126,-0.00
 078391,-0.00027738,0.00155984,-0.00014716,0.00017651,0.00013039,0.0002
 2969,0.00006137,0.00006481,-0.00013102,-0.00002141,-0.00004818,0.00008
 830,0.00024546,-0.00012244,0.00197316,-0.01549278,0.01612312,-0.000151
 02,0.00005197,-0.00006278,-0.00002713,0.00002434,0.00000558,-0.0000295
 5,-0.00001835,-0.00005296,0.00001142,0.00004728,0.00001506,0.00023833,
 -0.00008700,0.00002879,0.00038200,-0.00033026,0.00003432,0.00000121,0.
 00009373,0.00000663,-0.00001795,-0.00000793,0.00000979,0.00011542,-0.0
 0017136,-0.00008034,0.00006587,-0.00005467,0.00006594,-0.00001189,0.00
 000303,-0.00000372,-0.00000310,0.00000836,-0.00000787,-0.00000336,0.00
 000511,-0.00001641,-0.00009968,0.00001167,0.00006137,0.00000792,0.0000
 1258,-0.00001240,-0.00001494,0.00001515,-0.00000201,0.00000338,-0.0000
 0976,0.00000247,-0.00011359,0.00008085,0.00016823,0.00007337,-0.000136
 13,-0.00012269,0.00003219,-0.00010958,-0.00000045,0.00003886,-0.000033
 43,0.00000937,-0.09427251,-0.00491703,0.02026781,0.02601195,-0.0038655
 2,-0.00778221,0.54432211,0.00031787,-0.00024809,0.00003702,0.00008560,
 -0.00082776,0.00227555,-0.00469567,-0.00162741,-0.00223578,-0.00082562
 ,-0.00023638,-0.00003129,-0.00004283,0.00020912,-0.00000081,-0.0001289
 9,0.00023834,0.00009699,0.00016482,0.00010243,-0.00009081,0.00063642,0
 .00043659,0.00020649,-0.01585606,-0.02404631,0.03758568,-0.00028765,0.
 00017538,-0.00007280,-0.00000806,-0.00005703,-0.00003727,-0.00004599,0
 .00000308,0.00006891,-0.00057638,-0.00032048,-0.00012489,-0.00040993,-
 0.00058877,0.00023717,0.00017876,-0.00007815,-0.00002865,-0.00005531,0
 .00007048,0.00002336,0.00001819,0.00001331,0.00000651,0.00024299,-0.00
 019865,-0.00005031,0.00013682,-0.00011709,0.00005728,-0.00002142,0.000
 01108,-0.00000737,-0.00001263,0.00002638,0.00000908,-0.00001366,0.0000
 0339,-0.00002506,-0.00017535,-0.00000691,0.00007364,0.00000730,0.00001
 272,-0.00000942,0.00001482,0.00000066,-0.00000758,0.00001884,-0.000003
 09,-0.00000292,-0.00002543,-0.00035680,-0.00044691,0.00001735,-0.00000
 945,0.00025891,-0.00004681,0.00014912,0.00004306,0.00002122,0.00002961
 ,0.00003981,-0.00613659,-0.09791589,0.04930064,-0.00266162,0.01287526,
 -0.02475391,0.02139120,0.60101468,-0.00022460,-0.00013217,0.00008335,-
 0.00000771,-0.00044362,0.00023169,-0.00193616,-0.00245987,0.00356934,0
 .00012771,0.00009853,-0.00015595,0.00007513,-0.00016870,-0.00008889,0.
 00007941,-0.00010943,-0.00008526,-0.00003020,0.00029363,0.00015350,0.0
 0003629,0.00005715,0.00014054,0.00517732,0.00940467,-0.00366322,0.0003
 0965,0.00005733,-0.00002140,-0.00007464,-0.00001639,-0.00001136,-0.000
 04821,0.00004725,0.00001685,-0.00011953,-0.00004388,0.00003804,-0.0004
 0554,-0.00083429,0.00013459,-0.00002427,0.00007342,-0.00000993,0.00003
 611,-0.00005866,-0.00005255,0.00000471,0.00000135,-0.00001155,-0.00020
 873,0.00018812,0.00012479,-0.00013020,0.00007996,-0.00006712,0.0000165
 8,0.00000084,-0.00000314,-0.00000056,-0.00001180,0.00000645,-0.0000045
 1,-0.00001232,0.00001542,0.00014902,-0.00001543,-0.00012867,0.00000369
 ,0.00000540,0.00003091,0.00000545,-0.00001525,-0.00001209,-0.00001334,
 0.00000716,0.00000854,0.00005862,-0.00028119,-0.00019105,0.00006557,-0
 .00000704,0.00021972,-0.00003963,0.00010768,0.00000536,-0.00001851,0.0
 0003793,0.00001195,0.02428487,0.04926043,-0.19887950,0.00403437,-0.000
 67244,-0.04497270,0.02656502,0.02351848,0.51375272,-0.00000171,-0.0000
 2396,0.00011877,0.00007315,-0.00005082,-0.00005721,0.00026962,0.000352
 45,-0.00024801,-0.00008582,-0.00008998,-0.00001741,-0.00002839,0.00001
 959,-0.00004247,0.00011796,0.00000937,-0.00003545,-0.00007830,0.000069
 90,0.00002427,0.00005813,0.00008360,-0.00000442,-0.00017318,-0.0000274
 8,0.00075823,0.00001940,0.00005914,-0.00006995,-0.00000626,-0.00006085
 ,-0.00004834,-0.00000831,0.00000123,0.00002004,-0.00000638,0.00001280,
 -0.00000195,0.00000998,0.00008339,0.00009480,0.00001895,0.00000791,-0.
 00000146,-0.00004920,0.00003778,-0.00004720,0.00000109,0.00000804,-0.0
 0000117,0.00002317,-0.00002171,0.00003816,0.00000548,-0.00000413,0.000
 02554,-0.00000134,0.00000494,-0.00000733,-0.00000229,0.00000208,0.0000
 0793,-0.00000539,-0.00001161,-0.00001136,-0.00001532,-0.00001097,-0.00
 003649,0.00000293,0.00000633,0.00000916,0.00000332,-0.00000409,0.00000
 262,0.00000179,0.00000117,0.00000481,-0.00001128,-0.00001790,-0.000011
 40,-0.00002072,0.00000341,0.00001282,0.00000609,0.00001491,-0.00000300
 ,0.00001790,-0.00001399,0.00001353,0.00654861,0.00125570,0.00526629,-0
 .00115013,0.00060488,0.00323608,-0.20481687,-0.04858135,-0.13243843,0.
 22064842,0.00000041,0.00000372,0.00012931,-0.00000987,0.00012557,0.000
 08595,0.00020864,0.00004053,-0.00045844,0.00005948,0.00008424,0.000032
 30,0.00000762,-0.00002598,0.00009654,-0.00002943,-0.00005539,0.0000544
 3,0.00001272,-0.00004893,-0.00004214,-0.00005645,-0.00009556,-0.000017
 54,-0.00152046,-0.00129603,0.00077211,0.00006271,-0.00003452,-0.000048
 25,-0.00005040,0.00003332,-0.00000987,0.00001605,-0.00000427,-0.000059
 56,-0.00000899,-0.00001313,-0.00000141,0.00005696,0.00021529,-0.000063
 74,-0.00001135,-0.00002404,-0.00000655,0.00006396,-0.00001240,0.000035
 31,-0.00000452,-0.00001838,0.00000491,-0.00002440,0.00002722,-0.000065
 40,-0.00004674,0.00004177,0.00000731,0.00000372,-0.00000452,0.00000130
 ,0.00000427,-0.00001002,-0.00001589,0.00000063,0.00000802,0.00000401,0
 .00001382,0.00000039,0.00002968,-0.00000098,-0.00000971,-0.00001075,-0
 .00000401,0.00000388,0.00000517,0.00000063,0.00000069,-0.00000643,-0.0
 0002652,0.00003938,0.00000848,-0.00000679,0.00000502,-0.00003201,0.000
 00528,-0.00001501,0.00000073,-0.00000376,-0.00000343,-0.00000474,0.012
 49520,0.00075297,0.00240380,-0.00166812,0.00145381,0.00202557,-0.05009
 747,-0.06060168,-0.03444079,0.05217186,0.05910229,0.00007814,0.0000636
 3,-0.00022820,-0.00013253,0.00005877,-0.00006146,0.00072482,0.00007103
 ,-0.00001026,-0.00017205,-0.00015106,0.00028114,-0.00002126,0.00006431
 ,-0.00001588,-0.00009909,0.00005992,0.00003058,0.00013138,-0.00004439,
 -0.00001241,0.00009171,0.00011295,0.00003026,0.00148901,-0.00020694,0.
 00163293,-0.00013618,-0.00007708,0.00011513,0.00011301,0.00011297,0.00
 006476,-0.00000587,-0.00000866,-0.00005040,0.00001038,-0.00001574,0.00
 000297,-0.00012717,-0.00034639,0.00018297,0.00007428,-0.00006255,-0.00
 000157,-0.00002556,0.00001323,0.00001108,0.00000264,0.00000948,-0.0000
 0658,0.00005961,-0.00004680,-0.00000411,0.00005280,-0.00003314,0.00000
 547,-0.00000535,-0.00000590,0.00000684,0.00000196,0.00000485,-0.000013
 53,0.00000691,0.00001706,0.00000640,-0.00004235,0.00000804,0.00003087,
 0.00000159,0.00000255,-0.00000463,0.00000464,0.00000062,-0.00000519,0.
 00000336,-0.00000219,-0.00000081,-0.00000368,-0.00007390,-0.00006785,0
 .00002950,-0.00002528,0.00005218,-0.00001043,0.00001867,0.00000823,0.0
 0000261,0.00000875,0.00000453,-0.02799235,-0.01049300,-0.01761020,0.00
 424847,0.00204679,-0.00612318,-0.13056118,-0.03301159,-0.14780770,0.14
 079161,0.03861202,0.16133769,-0.00002317,0.00001693,-0.00002396,-0.000
 02480,0.00010869,-0.00002988,0.00025594,-0.00053134,0.00020878,0.00002
 764,0.00000005,0.00014688,0.00007648,-0.00006084,0.00010553,-0.0001436
 4,-0.00003383,0.00001796,0.00007396,-0.00006023,-0.00001164,-0.0001075
 5,-0.00008046,-0.00009319,0.00074871,-0.00048785,0.00007634,0.00003672
 ,-0.00003670,0.00001861,0.00001468,0.00004877,0.00000393,0.00001066,-0
 .00000029,-0.00002610,0.00001366,-0.00000183,0.00000776,0.00000355,0.0
 0002525,-0.00008952,0.00000493,-0.00000830,-0.00002351,0.00003933,-0.0
 0011955,0.00004851,0.00000023,-0.00001262,0.00000198,-0.00008867,0.000
 08228,-0.00004758,-0.00002781,0.00002018,-0.00001162,0.00000300,-0.000
 00283,0.00000312,0.00000216,-0.00000578,-0.00000637,0.00000315,0.00000
 479,0.00000629,0.00006267,0.00000606,0.00000888,0.00000003,-0.00000998
 ,-0.00000575,0.00000144,-0.00000046,-0.00000348,-0.00000317,0.00000247
 ,-0.00000627,0.00004785,0.00005184,0.00004909,0.00000991,-0.00000835,0
 .00000241,-0.00001570,-0.00000672,-0.00001692,-0.00001183,0.00000737,-
 0.00001694,-0.00548789,0.00292347,0.00263536,-0.00048974,-0.00082637,-
 0.00163283,-0.22295188,0.10587358,0.07734793,-0.01850525,0.01136653,0.
 00937636,0.24079265,0.00001727,0.00000887,-0.00001339,0.00005946,0.000
 17740,-0.00003025,0.00080836,-0.00029367,-0.00046444,-0.00031081,-0.00
 007734,0.00032327,0.00006737,0.00004359,0.00014521,-0.00019489,0.00001
 667,0.00001665,0.00010632,-0.00011278,-0.00004560,0.00000450,0.0000420
 7,-0.00025511,0.00013848,-0.00193554,0.00090918,-0.00003990,-0.0000112
 5,-0.00000285,0.00001346,0.00001465,0.00000985,0.00001892,-0.00001636,
 -0.00001341,0.00000523,-0.00001068,-0.00000133,0.00004460,0.00005491,-
 0.00000870,0.00009391,-0.00009207,-0.00000084,-0.00004307,-0.00008416,
 0.00003832,-0.00000246,-0.00001409,0.00000784,0.00001654,0.00002017,-0
 .00010668,0.00001641,-0.00001383,0.00001418,-0.00000303,0.00000233,-0.
 00000069,-0.00000101,0.00000123,0.00000096,-0.00000077,0.00000028,-0.0
 0000465,-0.00003960,0.00000841,0.00006914,-0.00001039,-0.00002744,-0.0
 0003302,0.00001206,-0.00000308,0.00002677,0.00001344,0.00000943,-0.000
 01668,0.00005388,0.00012705,0.00011909,0.00002134,-0.00002572,-0.00004
 273,-0.00000259,-0.00004003,-0.00002480,-0.00001173,0.00001277,-0.0000
 0566,-0.01209052,0.00529147,0.00061656,0.00135976,0.00031844,0.0009836
 6,0.10508525,-0.10309736,-0.04112861,-0.00654039,0.00253935,0.00296071
 ,-0.11486147,0.10875474,0.00003436,-0.00002257,-0.00002937,-0.00011083
 ,-0.00008782,0.00026222,-0.00084156,0.00065127,-0.00003941,0.00050092,
 0.00015965,-0.00029948,-0.00006457,-0.00002091,-0.00005490,0.00011374,
 -0.00002647,0.00002498,-0.00002935,0.00007939,0.00000897,-0.00014089,-
 0.00025844,0.00039368,-0.00158676,0.00099937,0.00036795,-0.00001880,0.
 00000289,0.00001138,0.00000683,0.00002090,0.00000022,-0.00000816,0.000
 00625,0.00000320,-0.00003371,-0.00003098,-0.00001593,-0.00013844,-0.00
 022165,0.00006474,-0.00012015,0.00003318,0.00002283,0.00005355,0.00010
 244,0.00004303,-0.00000882,-0.00000066,0.00000437,-0.00000493,-0.00002
 489,0.00000511,0.00000550,-0.00000518,-0.00000276,-0.00000065,-0.00000
 137,0.00000248,-0.00000042,0.00000057,-0.00000380,0.00000172,0.0000057
 3,0.00000238,0.00002496,0.00002196,0.00003651,-0.00000126,0.00000402,-
 0.00000065,-0.00001582,0.00001480,-0.00002006,-0.00000923,-0.00001049,
 -0.00000091,-0.00002441,-0.00016930,-0.00027187,0.00001525,0.00005221,
 0.00007066,-0.00003473,0.00003016,0.00005489,-0.00004271,0.00004193,-0
 .00003055,0.02905602,-0.01937066,-0.01176525,-0.00416899,0.00367715,-0
 .00338288,0.07986039,-0.04290171,-0.07341365,-0.01672198,0.01018885,0.
 00785344,-0.08469563,0.04665884,0.08089933,0.00000958,-0.00003914,-0.0
 0007500,0.00006853,0.00003204,-0.00000120,0.00041852,-0.00046546,0.000
 07786,-0.00015042,-0.00012833,0.00019860,0.00002743,0.00001042,0.00004
 034,-0.00005474,0.00002668,-0.00001281,0.00002434,0.00000080,0.0000013
 7,0.00000854,0.00003915,-0.00006905,0.00076320,-0.00117195,0.00211300,
 -0.00004217,0.00003475,0.00001684,0.00002938,-0.00000244,-0.00000422,-
 0.00000482,-0.00000443,0.00003381,-0.00001030,-0.00000815,-0.00000339,
 -0.00003221,-0.00007344,0.00004375,0.00005774,-0.00004471,-0.00000993,
 -0.00003146,-0.00005422,0.00000802,-0.00000072,-0.00000099,0.00000373,
 -0.00000149,0.00000669,-0.00002200,0.00002724,-0.00003363,-0.00000355,
 -0.00000380,0.00000507,-0.00000055,-0.00000354,0.00000742,0.00001152,-
 0.00000112,-0.00000375,-0.00000382,-0.00000716,0.00000234,0.00001082,-
 0.00000248,-0.00000823,-0.00000736,0.00000768,-0.00000368,0.00000730,0
 .00000422,0.00000367,-0.00000404,0.00004390,0.00001587,0.00000814,0.00
 001265,-0.00000209,0.00001156,-0.00001584,-0.00000063,-0.00001122,-0.0
 0001234,0.00001772,-0.00000572,-0.00442807,-0.00682321,0.00051780,-0.0
 0042615,0.00065860,-0.00142427,-0.05341109,-0.04851844,-0.00265268,-0.
 00285986,-0.02298024,0.00204026,0.00565176,0.02619604,-0.00085043,0.05
 434503,0.00003455,-0.00002704,-0.00000781,0.00001703,-0.00004647,0.000
 19390,-0.00019536,0.00033477,-0.00056967,-0.00008841,-0.00003674,0.000
 01254,-0.00002881,0.00003136,-0.00002555,0.00002838,0.00002967,0.00000
 978,0.00000397,0.00002737,-0.00001191,0.00008761,0.00005866,0.00006142
 ,-0.00009272,-0.00022090,0.00217967,-0.00003778,0.00002151,-0.00000446
 ,0.00000361,-0.00000752,0.00000278,-0.00000510,0.00000121,0.00000879,-
 0.00004479,-0.00002610,-0.00002278,-0.00005187,-0.00010996,0.00009928,
 0.00002533,-0.00001055,-0.00000051,-0.00000905,0.00004158,-0.00000168,
 0.00000104,0.00000252,0.00000186,0.00004256,-0.00003922,0.00000696,0.0
 0001998,-0.00001630,0.00000786,-0.00000285,0.00000182,-0.00000088,-0.0
 0000220,0.00000370,0.00000176,-0.00000156,0.00000002,-0.00000369,-0.00
 002893,-0.00000272,0.00000641,0.00000221,0.00000521,0.00000138,0.00000
 002,0.00000110,-0.00000378,0.00000158,-0.00000178,0.00000113,-0.000032
 16,-0.00006030,-0.00007379,-0.00000648,-0.00000145,0.00003340,0.000001
 13,0.00002220,0.00001102,0.00001180,-0.00000492,0.00001074,-0.00124352
 ,-0.01041927,-0.00298224,0.00036210,0.00205814,-0.00121606,-0.04934747
 ,-0.32503432,-0.00238742,0.00064876,-0.00220449,0.00035824,-0.00338249
 ,-0.01158842,0.00040155,0.05330989,0.34721762,-0.00008135,0.00008729,-
 0.00003549,-0.00009851,0.00017566,-0.00063729,0.00108785,0.00084941,0.
 00059666,0.00029291,0.00001127,-0.00011867,-0.00000167,-0.00004104,-0.
 00007199,0.00007476,-0.00004008,-0.00006331,-0.00003986,0.00002134,0.0
 0005789,-0.00018309,-0.00008021,-0.00003667,0.00201862,0.00369709,-0.0
 0661897,0.00006975,-0.00004891,0.00004036,0.00002431,0.00000091,0.0000
 0106,0.00000383,0.00000697,-0.00000149,0.00016524,0.00009851,0.0000287
 3,0.00006157,0.00009745,0.00000552,-0.00007760,0.00005734,0.00000767,-
 0.00000277,0.00001732,-0.00005153,-0.00000196,0.00000890,-0.00000668,-
 0.00006242,0.00004349,0.00006083,-0.00003015,0.00003170,-0.00002122,0.
 00000654,-0.00000403,0.00000238,0.00000388,-0.00000659,-0.00000013,0.0
 0000584,-0.00000361,0.00000689,0.00005271,0.00000105,-0.00004420,-0.00
 000156,0.00000759,0.00001359,-0.00000392,-0.00000116,-0.00000557,-0.00
 000766,-0.00000062,0.00000741,0.00004064,0.00006310,0.00010554,0.00001
 471,0.00001425,-0.00002400,0.00000251,-0.00002273,-0.00000786,-0.00001
 621,0.00000802,-0.00001024,0.00406755,0.03304669,0.00309626,0.00022255
 ,-0.00208362,0.00197766,-0.00367946,-0.00999948,-0.04896804,-0.0006196
 2,-0.01921426,0.00036647,-0.00332451,-0.01070079,-0.00080093,0.0000165
 2,0.00390177,0.05114938\\0.00000036,0.00000273,0.00000151,0.00000146,-
 0.00000423,-0.00000367,0.00000030,0.00000132,-0.00000049,0.00000119,0.
 00000060,0.00000167,0.00000244,-0.00000097,-0.00000508,-0.00000317,-0.
 00000086,0.00000145,0.00000141,0.00000323,0.00000376,-0.00000161,-0.00
 000070,0.00000011,-0.00000189,-0.00000048,-0.00000020,-0.00000061,0.00
 000021,-0.00000126,0.00000017,-0.00000050,-0.00000085,-0.00000013,0.00
 000078,-0.00000173,-0.00000126,0.00000120,-0.00000012,0.00000034,0.000
 00025,-0.00000033,0.00000007,-0.00000016,0.00000070,0.00000042,-0.0000
 0091,0.00000234,-0.00000042,-0.00000019,0.00000117,0.00000127,0.000000
 97,0.00000252,-0.00000014,0.00000088,0.00000106,-0.00000039,0.00000119
 ,-0.00000050,0.00000042,0.00000095,-0.00000061,0.00000002,0.00000063,-
 0.00000046,-0.00000282,-0.00000130,0.00000241,0.00000050,0.00000014,0.
 00000056,0.00000078,-0.00000073,0.00000044,-0.00000156,-0.00000100,0.0
 0000020,-0.00000026,0.00000018,-0.00000058,0.00000027,0.00000022,-0.00
 000056,-0.00000023,0.00000044,0.00000058,0.00000009,-0.00000084,-0.000
 00010,0.00000180,0.00000259,0.00000145,-0.00000060,-0.00000180,-0.0000
 0204,-0.00000027,-0.00000111,-0.00000118,0.00000057,-0.00000089,-0.000
 00064,0.00000071,-0.00000092,-0.00000048,0.00000076,-0.00000093,-0.000
 00102\\\@


 ALL MY ATTEMPTS TO ADAPT THE THEORETICAL FOUNDATIONS OF PHYSICS
 TO THESE NEW NOTIONS FAILED COMPLETELY. IT WAS AS IF THE GROUND HAD
 BEEN PULLED OUT FROM UNDER ONE WITH NO FIRM FOUNDATION TO BE SEEN ANYWHERE,
 UPON WHICH ONE COULD HAVE BUILT.  -- A.EINSTEIN
 Job cpu time:       0 days  6 hours 36 minutes 29.8 seconds.
 File lengths (MBytes):  RWF=    766 Int=      0 D2E=      0 Chk=     19 Scr=      1
 Normal termination of Gaussian 09 at Tue Jan 10 12:54:15 2017.
