 Entering Gaussian System, Link 0=g09
 Initial command:
 /share/apps//g09/l1.exe "/scratch/Gau-14897.inp" -scrdir="/scratch/"
 Entering Link 1 = /share/apps//g09/l1.exe PID=     14898.
  
 Copyright (c) 1988,1990,1992,1993,1995,1998,2003,2009,2013,
            Gaussian, Inc.  All Rights Reserved.
  
 This is part of the Gaussian(R) 09 program.  It is based on
 the Gaussian(R) 03 system (copyright 2003, Gaussian, Inc.),
 the Gaussian(R) 98 system (copyright 1998, Gaussian, Inc.),
 the Gaussian(R) 94 system (copyright 1995, Gaussian, Inc.),
 the Gaussian 92(TM) system (copyright 1992, Gaussian, Inc.),
 the Gaussian 90(TM) system (copyright 1990, Gaussian, Inc.),
 the Gaussian 88(TM) system (copyright 1988, Gaussian, Inc.),
 the Gaussian 86(TM) system (copyright 1986, Carnegie Mellon
 University), and the Gaussian 82(TM) system (copyright 1983,
 Carnegie Mellon University). Gaussian is a federally registered
 trademark of Gaussian, Inc.
  
 This software contains proprietary and confidential information,
 including trade secrets, belonging to Gaussian, Inc.
  
 This software is provided under written license and may be
 used, copied, transmitted, or stored only in accord with that
 written license.
  
 The following legend is applicable only to US Government
 contracts under FAR:
  
                    RESTRICTED RIGHTS LEGEND
  
 Use, reproduction and disclosure by the US Government is
 subject to restrictions as set forth in subparagraphs (a)
 and (c) of the Commercial Computer Software - Restricted
 Rights clause in FAR 52.227-19.
  
 Gaussian, Inc.
 340 Quinnipiac St., Bldg. 40, Wallingford CT 06492
  
  
 ---------------------------------------------------------------
 Warning -- This program may not be used in any manner that
 competes with the business of Gaussian, Inc. or will provide
 assistance to any competitor of Gaussian, Inc.  The licensee
 of this program is prohibited from giving any competitor of
 Gaussian, Inc. access to this program.  By using this program,
 the user acknowledges that Gaussian, Inc. is engaged in the
 business of creating and licensing software in the field of
 computational chemistry and represents and warrants to the
 licensee that it is not a competitor of Gaussian, Inc. and that
 it will not use this program in any manner prohibited above.
 ---------------------------------------------------------------
  

 Cite this work as:
 Gaussian 09, Revision D.01,
 M. J. Frisch, G. W. Trucks, H. B. Schlegel, G. E. Scuseria, 
 M. A. Robb, J. R. Cheeseman, G. Scalmani, V. Barone, B. Mennucci, 
 G. A. Petersson, H. Nakatsuji, M. Caricato, X. Li, H. P. Hratchian, 
 A. F. Izmaylov, J. Bloino, G. Zheng, J. L. Sonnenberg, M. Hada, 
 M. Ehara, K. Toyota, R. Fukuda, J. Hasegawa, M. Ishida, T. Nakajima, 
 Y. Honda, O. Kitao, H. Nakai, T. Vreven, J. A. Montgomery, Jr., 
 J. E. Peralta, F. Ogliaro, M. Bearpark, J. J. Heyd, E. Brothers, 
 K. N. Kudin, V. N. Staroverov, T. Keith, R. Kobayashi, J. Normand, 
 K. Raghavachari, A. Rendell, J. C. Burant, S. S. Iyengar, J. Tomasi, 
 M. Cossi, N. Rega, J. M. Millam, M. Klene, J. E. Knox, J. B. Cross, 
 V. Bakken, C. Adamo, J. Jaramillo, R. Gomperts, R. E. Stratmann, 
 O. Yazyev, A. J. Austin, R. Cammi, C. Pomelli, J. W. Ochterski, 
 R. L. Martin, K. Morokuma, V. G. Zakrzewski, G. A. Voth, 
 P. Salvador, J. J. Dannenberg, S. Dapprich, A. D. Daniels, 
 O. Farkas, J. B. Foresman, J. V. Ortiz, J. Cioslowski, 
 and D. J. Fox, Gaussian, Inc., Wallingford CT, 2013.
 
 ******************************************
 Gaussian 09:  EM64L-G09RevD.01 24-Apr-2013
                24-Oct-2017 
 ******************************************
 %nproc=20
 Will use up to   20 processors via shared memory.
 %mem=100GB
 %chk=Ac-4_cGalMe.chk
 -------------------------------------------------------------------
 #P PBE1PBE/6-311+G(d,p) opt optcyc=999 freq EmpiricalDispersion=GD3
 -------------------------------------------------------------------
 1/6=999,14=-1,18=20,19=15,26=3,38=1/1,3;
 2/9=110,12=2,17=6,18=5,40=1/2;
 3/5=4,6=6,7=111,11=2,16=1,25=1,30=1,71=1,74=-13,124=31/1,2,3;
 4//1;
 5/5=2,38=5/2;
 6/7=2,8=2,9=2,10=2,28=1/1;
 7//1,2,3,16;
 1/6=999,14=-1,18=20,19=15,26=3/3(2);
 2/9=110/2;
 99//99;
 2/9=110/2;
 3/5=4,6=6,7=111,11=2,16=1,25=1,30=1,71=1,74=-13,124=31/1,2,3;
 4/5=5,16=3,69=1/1;
 5/5=2,38=5/2;
 7//1,2,3,16;
 1/6=999,14=-1,18=20,19=15,26=3/3(-5);
 2/9=110/2;
 6/7=2,8=2,9=2,10=2,19=2,28=1/1;
 99/9=1/99;
 Leave Link    1 at Tue Oct 24 12:45:24 2017, MaxMem= 13421772800 cpu:         1.8
 (Enter /share/apps//g09/l101.exe)
 -------
 disacch
 -------
 Symbolic Z-matrix:
 Charge =  1 Multiplicity = 1
 C                    -0.94501  -1.51429   2.88221 
 C                     0.27203  -1.12876   2.02596 
 C                     0.53298   0.36493   1.9751 
 C                     1.80196   0.70649   1.15375 
 C                     1.92847  -0.26262  -0.05465 
 C                     0.58595  -0.93644  -0.32499 
 O                     0.03545  -1.64635   0.67754 
 O                     1.81208   2.02589   0.65373 
 O                    -0.64409   1.08646   1.39956 
 O                    -0.75924  -1.0658    4.20999 
 H                    -1.093    -2.60532   2.81958 
 H                    -1.84956  -1.02736   2.4863 
 H                     1.18081  -1.61564   2.41896 
 H                     0.56273   0.75875   2.99849 
 H                     2.66096   0.52255   1.82851 
 H                     2.21369   0.33447  -0.93921 
 H                     0.53784  -1.51413  -1.25307 
 O                     2.82048  -1.33077   0.18211 
 C                    -0.18721  -2.04872   5.08758 
 H                    -0.12876  -1.57998   6.07586 
 H                    -0.83008  -2.94167   5.14619 
 H                     0.82705  -2.35076   4.77452 
 C                     4.19482  -1.00439  -0.09469 
 H                     4.31966  -0.70291  -1.14675 
 H                     4.56366  -0.19992   0.5626 
 H                     4.76633  -1.91777   0.09794 
 C                     2.01552   3.04043   1.65416 
 H                     1.13988   3.14909   2.31452 
 H                     2.90906   2.81707   2.25923 
 H                     2.17243   3.97705   1.10941 
 C                    -0.88891   1.08611   0.12101 
 O                    -0.38969   0.28387  -0.74227 
 C                    -1.85341   2.10687  -0.35432 
 H                    -1.27221   2.98549  -0.67656 
 H                    -2.51789   2.41471   0.4592 
 H                    -2.41529   1.73343  -1.2159 
 
 NAtoms=     36 NQM=       36 NQMF=       0 NMMI=      0 NMMIF=      0
                NMic=       0 NMicF=      0.
                    Isotopes and Nuclear Properties:
 (Nuclear quadrupole moments (NQMom) in fm**2, nuclear magnetic moments (NMagM)
  in nuclear magnetons)

  Atom         1           2           3           4           5           6           7           8           9          10
 IAtWgt=          12          12          12          12          12          12          16          16          16          16
 AtmWgt=  12.0000000  12.0000000  12.0000000  12.0000000  12.0000000  12.0000000  15.9949146  15.9949146  15.9949146  15.9949146
 NucSpn=           0           0           0           0           0           0           0           0           0           0
 AtZEff=   0.0000000   0.0000000   0.0000000   0.0000000   0.0000000   0.0000000   0.0000000   0.0000000   0.0000000   0.0000000
 NQMom=    0.0000000   0.0000000   0.0000000   0.0000000   0.0000000   0.0000000   0.0000000   0.0000000   0.0000000   0.0000000
 NMagM=    0.0000000   0.0000000   0.0000000   0.0000000   0.0000000   0.0000000   0.0000000   0.0000000   0.0000000   0.0000000
 AtZNuc=   6.0000000   6.0000000   6.0000000   6.0000000   6.0000000   6.0000000   8.0000000   8.0000000   8.0000000   8.0000000

  Atom        11          12          13          14          15          16          17          18          19          20
 IAtWgt=           1           1           1           1           1           1           1          16          12           1
 AtmWgt=   1.0078250   1.0078250   1.0078250   1.0078250   1.0078250   1.0078250   1.0078250  15.9949146  12.0000000   1.0078250
 NucSpn=           1           1           1           1           1           1           1           0           0           1
 AtZEff=   0.0000000   0.0000000   0.0000000   0.0000000   0.0000000   0.0000000   0.0000000   0.0000000   0.0000000   0.0000000
 NQMom=    0.0000000   0.0000000   0.0000000   0.0000000   0.0000000   0.0000000   0.0000000   0.0000000   0.0000000   0.0000000
 NMagM=    2.7928460   2.7928460   2.7928460   2.7928460   2.7928460   2.7928460   2.7928460   0.0000000   0.0000000   2.7928460
 AtZNuc=   1.0000000   1.0000000   1.0000000   1.0000000   1.0000000   1.0000000   1.0000000   8.0000000   6.0000000   1.0000000

  Atom        21          22          23          24          25          26          27          28          29          30
 IAtWgt=           1           1          12           1           1           1          12           1           1           1
 AtmWgt=   1.0078250   1.0078250  12.0000000   1.0078250   1.0078250   1.0078250  12.0000000   1.0078250   1.0078250   1.0078250
 NucSpn=           1           1           0           1           1           1           0           1           1           1
 AtZEff=   0.0000000   0.0000000   0.0000000   0.0000000   0.0000000   0.0000000   0.0000000   0.0000000   0.0000000   0.0000000
 NQMom=    0.0000000   0.0000000   0.0000000   0.0000000   0.0000000   0.0000000   0.0000000   0.0000000   0.0000000   0.0000000
 NMagM=    2.7928460   2.7928460   0.0000000   2.7928460   2.7928460   2.7928460   0.0000000   2.7928460   2.7928460   2.7928460
 AtZNuc=   1.0000000   1.0000000   6.0000000   1.0000000   1.0000000   1.0000000   6.0000000   1.0000000   1.0000000   1.0000000

  Atom        31          32          33          34          35          36
 IAtWgt=          12          16          12           1           1           1
 AtmWgt=  12.0000000  15.9949146  12.0000000   1.0078250   1.0078250   1.0078250
 NucSpn=           0           0           0           1           1           1
 AtZEff=   0.0000000   0.0000000   0.0000000   0.0000000   0.0000000   0.0000000
 NQMom=    0.0000000   0.0000000   0.0000000   0.0000000   0.0000000   0.0000000
 NMagM=    0.0000000   0.0000000   0.0000000   2.7928460   2.7928460   2.7928460
 AtZNuc=   6.0000000   8.0000000   6.0000000   1.0000000   1.0000000   1.0000000
 Leave Link  101 at Tue Oct 24 12:45:25 2017, MaxMem= 13421772800 cpu:         5.1
 (Enter /share/apps//g09/l103.exe)

 GradGradGradGradGradGradGradGradGradGradGradGradGradGradGradGradGradGrad
 Berny optimization.
 Initialization pass.
                           ----------------------------
                           !    Initial Parameters    !
                           ! (Angstroms and Degrees)  !
 --------------------------                            --------------------------
 ! Name  Definition              Value          Derivative Info.                !
 --------------------------------------------------------------------------------
 ! R1    R(1,2)                  1.5372         estimate D2E/DX2                !
 ! R2    R(1,10)                 1.4137         estimate D2E/DX2                !
 ! R3    R(1,11)                 1.1028         estimate D2E/DX2                !
 ! R4    R(1,12)                 1.1009         estimate D2E/DX2                !
 ! R5    R(2,3)                  1.5172         estimate D2E/DX2                !
 ! R6    R(2,7)                  1.4636         estimate D2E/DX2                !
 ! R7    R(2,13)                 1.1034         estimate D2E/DX2                !
 ! R8    R(3,4)                  1.5497         estimate D2E/DX2                !
 ! R9    R(3,9)                  1.4958         estimate D2E/DX2                !
 ! R10   R(3,14)                 1.097          estimate D2E/DX2                !
 ! R11   R(4,5)                  1.5542         estimate D2E/DX2                !
 ! R12   R(4,8)                  1.411          estimate D2E/DX2                !
 ! R13   R(4,15)                 1.1077         estimate D2E/DX2                !
 ! R14   R(5,6)                  1.5263         estimate D2E/DX2                !
 ! R15   R(5,16)                 1.1047         estimate D2E/DX2                !
 ! R16   R(5,18)                 1.4116         estimate D2E/DX2                !
 ! R17   R(6,7)                  1.3461         estimate D2E/DX2                !
 ! R18   R(6,17)                 1.0942         estimate D2E/DX2                !
 ! R19   R(6,32)                 1.6171         estimate D2E/DX2                !
 ! R20   R(8,27)                 1.4393         estimate D2E/DX2                !
 ! R21   R(9,31)                 1.3018         estimate D2E/DX2                !
 ! R22   R(10,19)                1.4365         estimate D2E/DX2                !
 ! R23   R(18,23)                1.4394         estimate D2E/DX2                !
 ! R24   R(19,20)                1.0954         estimate D2E/DX2                !
 ! R25   R(19,21)                1.1019         estimate D2E/DX2                !
 ! R26   R(19,22)                1.1036         estimate D2E/DX2                !
 ! R27   R(23,24)                1.1015         estimate D2E/DX2                !
 ! R28   R(23,25)                1.1024         estimate D2E/DX2                !
 ! R29   R(23,26)                1.0945         estimate D2E/DX2                !
 ! R30   R(27,28)                1.1021         estimate D2E/DX2                !
 ! R31   R(27,29)                1.102          estimate D2E/DX2                !
 ! R32   R(27,30)                1.0948         estimate D2E/DX2                !
 ! R33   R(31,32)                1.2799         estimate D2E/DX2                !
 ! R34   R(31,33)                1.4826         estimate D2E/DX2                !
 ! R35   R(33,34)                1.1016         estimate D2E/DX2                !
 ! R36   R(33,35)                1.0946         estimate D2E/DX2                !
 ! R37   R(33,36)                1.0943         estimate D2E/DX2                !
 ! A1    A(2,1,10)             109.8496         estimate D2E/DX2                !
 ! A2    A(2,1,11)             108.8284         estimate D2E/DX2                !
 ! A3    A(2,1,12)             109.8318         estimate D2E/DX2                !
 ! A4    A(10,1,11)            112.6328         estimate D2E/DX2                !
 ! A5    A(10,1,12)            107.7823         estimate D2E/DX2                !
 ! A6    A(11,1,12)            107.8717         estimate D2E/DX2                !
 ! A7    A(1,2,3)              113.6887         estimate D2E/DX2                !
 ! A8    A(1,2,7)              107.2484         estimate D2E/DX2                !
 ! A9    A(1,2,13)             110.0618         estimate D2E/DX2                !
 ! A10   A(3,2,7)              110.1872         estimate D2E/DX2                !
 ! A11   A(3,2,13)             107.7413         estimate D2E/DX2                !
 ! A12   A(7,2,13)             107.7728         estimate D2E/DX2                !
 ! A13   A(2,3,4)              112.0615         estimate D2E/DX2                !
 ! A14   A(2,3,9)              110.638          estimate D2E/DX2                !
 ! A15   A(2,3,14)             109.0775         estimate D2E/DX2                !
 ! A16   A(4,3,9)              109.5195         estimate D2E/DX2                !
 ! A17   A(4,3,14)             113.1491         estimate D2E/DX2                !
 ! A18   A(9,3,14)             101.9545         estimate D2E/DX2                !
 ! A19   A(3,4,5)              109.9569         estimate D2E/DX2                !
 ! A20   A(3,4,8)              113.5647         estimate D2E/DX2                !
 ! A21   A(3,4,15)             105.9947         estimate D2E/DX2                !
 ! A22   A(5,4,8)              107.8761         estimate D2E/DX2                !
 ! A23   A(5,4,15)             107.8762         estimate D2E/DX2                !
 ! A24   A(8,4,15)             111.4431         estimate D2E/DX2                !
 ! A25   A(4,5,6)              109.9628         estimate D2E/DX2                !
 ! A26   A(4,5,16)             107.8529         estimate D2E/DX2                !
 ! A27   A(4,5,18)             113.1329         estimate D2E/DX2                !
 ! A28   A(6,5,16)             108.8992         estimate D2E/DX2                !
 ! A29   A(6,5,18)             104.5648         estimate D2E/DX2                !
 ! A30   A(16,5,18)            112.3425         estimate D2E/DX2                !
 ! A31   A(5,6,7)              117.4275         estimate D2E/DX2                !
 ! A32   A(5,6,17)             114.9594         estimate D2E/DX2                !
 ! A33   A(5,6,32)             104.0777         estimate D2E/DX2                !
 ! A34   A(7,6,17)             109.5882         estimate D2E/DX2                !
 ! A35   A(7,6,32)             110.0844         estimate D2E/DX2                !
 ! A36   A(17,6,32)             98.8012         estimate D2E/DX2                !
 ! A37   A(2,7,6)              115.6922         estimate D2E/DX2                !
 ! A38   A(4,8,27)             114.4452         estimate D2E/DX2                !
 ! A39   A(3,9,31)             121.7205         estimate D2E/DX2                !
 ! A40   A(1,10,19)            114.1444         estimate D2E/DX2                !
 ! A41   A(5,18,23)            113.5473         estimate D2E/DX2                !
 ! A42   A(10,19,20)           106.2385         estimate D2E/DX2                !
 ! A43   A(10,19,21)           110.774          estimate D2E/DX2                !
 ! A44   A(10,19,22)           112.3299         estimate D2E/DX2                !
 ! A45   A(20,19,21)           109.2651         estimate D2E/DX2                !
 ! A46   A(20,19,22)           108.9057         estimate D2E/DX2                !
 ! A47   A(21,19,22)           109.2385         estimate D2E/DX2                !
 ! A48   A(18,23,24)           110.7284         estimate D2E/DX2                !
 ! A49   A(18,23,25)           111.732          estimate D2E/DX2                !
 ! A50   A(18,23,26)           105.9907         estimate D2E/DX2                !
 ! A51   A(24,23,25)           109.3798         estimate D2E/DX2                !
 ! A52   A(24,23,26)           109.7134         estimate D2E/DX2                !
 ! A53   A(25,23,26)           109.2287         estimate D2E/DX2                !
 ! A54   A(8,27,28)            111.9427         estimate D2E/DX2                !
 ! A55   A(8,27,29)            110.6945         estimate D2E/DX2                !
 ! A56   A(8,27,30)            106.1074         estimate D2E/DX2                !
 ! A57   A(28,27,29)           109.5856         estimate D2E/DX2                !
 ! A58   A(28,27,30)           109.1268         estimate D2E/DX2                !
 ! A59   A(29,27,30)           109.2922         estimate D2E/DX2                !
 ! A60   A(9,31,32)            126.1062         estimate D2E/DX2                !
 ! A61   A(9,31,33)            115.9152         estimate D2E/DX2                !
 ! A62   A(32,31,33)           117.9727         estimate D2E/DX2                !
 ! A63   A(6,32,31)            122.295          estimate D2E/DX2                !
 ! A64   A(31,33,34)           107.4382         estimate D2E/DX2                !
 ! A65   A(31,33,35)           110.5037         estimate D2E/DX2                !
 ! A66   A(31,33,36)           110.5789         estimate D2E/DX2                !
 ! A67   A(34,33,35)           108.2623         estimate D2E/DX2                !
 ! A68   A(34,33,36)           108.2258         estimate D2E/DX2                !
 ! A69   A(35,33,36)           111.681          estimate D2E/DX2                !
 ! D1    D(10,1,2,3)           -59.2909         estimate D2E/DX2                !
 ! D2    D(10,1,2,7)           178.6494         estimate D2E/DX2                !
 ! D3    D(10,1,2,13)           61.6715         estimate D2E/DX2                !
 ! D4    D(11,1,2,3)           176.9739         estimate D2E/DX2                !
 ! D5    D(11,1,2,7)            54.9141         estimate D2E/DX2                !
 ! D6    D(11,1,2,13)          -62.0638         estimate D2E/DX2                !
 ! D7    D(12,1,2,3)            59.0918         estimate D2E/DX2                !
 ! D8    D(12,1,2,7)           -62.968          estimate D2E/DX2                !
 ! D9    D(12,1,2,13)         -179.9459         estimate D2E/DX2                !
 ! D10   D(2,1,10,19)          -93.8575         estimate D2E/DX2                !
 ! D11   D(11,1,10,19)          27.6266         estimate D2E/DX2                !
 ! D12   D(12,1,10,19)         146.5012         estimate D2E/DX2                !
 ! D13   D(1,2,3,4)            177.5252         estimate D2E/DX2                !
 ! D14   D(1,2,3,9)            -59.9348         estimate D2E/DX2                !
 ! D15   D(1,2,3,14)            51.4394         estimate D2E/DX2                !
 ! D16   D(7,2,3,4)            -62.0569         estimate D2E/DX2                !
 ! D17   D(7,2,3,9)             60.483          estimate D2E/DX2                !
 ! D18   D(7,2,3,14)           171.8573         estimate D2E/DX2                !
 ! D19   D(13,2,3,4)            55.2716         estimate D2E/DX2                !
 ! D20   D(13,2,3,9)           177.8116         estimate D2E/DX2                !
 ! D21   D(13,2,3,14)          -70.8142         estimate D2E/DX2                !
 ! D22   D(1,2,7,6)            149.6049         estimate D2E/DX2                !
 ! D23   D(3,2,7,6)             25.3846         estimate D2E/DX2                !
 ! D24   D(13,2,7,6)           -91.9244         estimate D2E/DX2                !
 ! D25   D(2,3,4,5)             36.3027         estimate D2E/DX2                !
 ! D26   D(2,3,4,8)            157.2772         estimate D2E/DX2                !
 ! D27   D(2,3,4,15)           -80.0445         estimate D2E/DX2                !
 ! D28   D(9,3,4,5)            -86.8703         estimate D2E/DX2                !
 ! D29   D(9,3,4,8)             34.1042         estimate D2E/DX2                !
 ! D30   D(9,3,4,15)           156.7825         estimate D2E/DX2                !
 ! D31   D(14,3,4,5)           160.1393         estimate D2E/DX2                !
 ! D32   D(14,3,4,8)           -78.8862         estimate D2E/DX2                !
 ! D33   D(14,3,4,15)           43.7921         estimate D2E/DX2                !
 ! D34   D(2,3,9,31)           -76.5612         estimate D2E/DX2                !
 ! D35   D(4,3,9,31)            47.4495         estimate D2E/DX2                !
 ! D36   D(14,3,9,31)          167.5423         estimate D2E/DX2                !
 ! D37   D(3,4,5,6)             18.001          estimate D2E/DX2                !
 ! D38   D(3,4,5,16)           136.6235         estimate D2E/DX2                !
 ! D39   D(3,4,5,18)           -98.4943         estimate D2E/DX2                !
 ! D40   D(8,4,5,6)           -106.3331         estimate D2E/DX2                !
 ! D41   D(8,4,5,16)            12.2894         estimate D2E/DX2                !
 ! D42   D(8,4,5,18)           137.1716         estimate D2E/DX2                !
 ! D43   D(15,4,5,6)           133.1606         estimate D2E/DX2                !
 ! D44   D(15,4,5,16)         -108.2169         estimate D2E/DX2                !
 ! D45   D(15,4,5,18)           16.6653         estimate D2E/DX2                !
 ! D46   D(3,4,8,27)            71.6474         estimate D2E/DX2                !
 ! D47   D(5,4,8,27)          -166.2169         estimate D2E/DX2                !
 ! D48   D(15,4,8,27)          -47.9749         estimate D2E/DX2                !
 ! D49   D(4,5,6,7)            -58.1074         estimate D2E/DX2                !
 ! D50   D(4,5,6,17)           170.732          estimate D2E/DX2                !
 ! D51   D(4,5,6,32)            63.8313         estimate D2E/DX2                !
 ! D52   D(16,5,6,7)          -176.0843         estimate D2E/DX2                !
 ! D53   D(16,5,6,17)           52.7551         estimate D2E/DX2                !
 ! D54   D(16,5,6,32)          -54.1456         estimate D2E/DX2                !
 ! D55   D(18,5,6,7)            63.6441         estimate D2E/DX2                !
 ! D56   D(18,5,6,17)          -67.5165         estimate D2E/DX2                !
 ! D57   D(18,5,6,32)         -174.4172         estimate D2E/DX2                !
 ! D58   D(4,5,18,23)          -85.1618         estimate D2E/DX2                !
 ! D59   D(6,5,18,23)          155.1955         estimate D2E/DX2                !
 ! D60   D(16,5,18,23)          37.2514         estimate D2E/DX2                !
 ! D61   D(5,6,7,2)             34.2431         estimate D2E/DX2                !
 ! D62   D(17,6,7,2)           167.8173         estimate D2E/DX2                !
 ! D63   D(32,6,7,2)           -84.5427         estimate D2E/DX2                !
 ! D64   D(5,6,32,31)          -77.0992         estimate D2E/DX2                !
 ! D65   D(7,6,32,31)           49.5796         estimate D2E/DX2                !
 ! D66   D(17,6,32,31)         164.2773         estimate D2E/DX2                !
 ! D67   D(4,8,27,28)          -70.6003         estimate D2E/DX2                !
 ! D68   D(4,8,27,29)           51.9818         estimate D2E/DX2                !
 ! D69   D(4,8,27,30)          170.4514         estimate D2E/DX2                !
 ! D70   D(3,9,31,32)           16.3037         estimate D2E/DX2                !
 ! D71   D(3,9,31,33)         -164.5995         estimate D2E/DX2                !
 ! D72   D(1,10,19,20)        -178.3797         estimate D2E/DX2                !
 ! D73   D(1,10,19,21)         -59.8228         estimate D2E/DX2                !
 ! D74   D(1,10,19,22)          62.6429         estimate D2E/DX2                !
 ! D75   D(5,18,23,24)         -59.3509         estimate D2E/DX2                !
 ! D76   D(5,18,23,25)          62.8428         estimate D2E/DX2                !
 ! D77   D(5,18,23,26)        -178.2735         estimate D2E/DX2                !
 ! D78   D(9,31,32,6)            3.6896         estimate D2E/DX2                !
 ! D79   D(33,31,32,6)        -175.3905         estimate D2E/DX2                !
 ! D80   D(9,31,33,34)          93.8011         estimate D2E/DX2                !
 ! D81   D(9,31,33,35)         -24.1129         estimate D2E/DX2                !
 ! D82   D(9,31,33,36)        -148.2873         estimate D2E/DX2                !
 ! D83   D(32,31,33,34)        -87.0252         estimate D2E/DX2                !
 ! D84   D(32,31,33,35)        155.0609         estimate D2E/DX2                !
 ! D85   D(32,31,33,36)         30.8864         estimate D2E/DX2                !
 --------------------------------------------------------------------------------
 Trust Radius=3.00D-01 FncErr=1.00D-07 GrdErr=1.00D-06
 Number of steps in this run=    216 maximum allowed number of steps=    216.
 GradGradGradGradGradGradGradGradGradGradGradGradGradGradGradGradGradGrad

 Leave Link  103 at Tue Oct 24 12:45:25 2017, MaxMem= 13421772800 cpu:         0.2
 (Enter /share/apps//g09/l202.exe)
                          Input orientation:                          
 ---------------------------------------------------------------------
 Center     Atomic      Atomic             Coordinates (Angstroms)
 Number     Number       Type             X           Y           Z
 ---------------------------------------------------------------------
      1          6           0       -0.945010   -1.514290    2.882210
      2          6           0        0.272030   -1.128760    2.025960
      3          6           0        0.532980    0.364930    1.975100
      4          6           0        1.801960    0.706490    1.153750
      5          6           0        1.928470   -0.262620   -0.054650
      6          6           0        0.585950   -0.936440   -0.324990
      7          8           0        0.035450   -1.646350    0.677540
      8          8           0        1.812080    2.025890    0.653730
      9          8           0       -0.644090    1.086460    1.399560
     10          8           0       -0.759240   -1.065800    4.209990
     11          1           0       -1.093000   -2.605320    2.819580
     12          1           0       -1.849560   -1.027360    2.486300
     13          1           0        1.180810   -1.615640    2.418960
     14          1           0        0.562730    0.758750    2.998490
     15          1           0        2.660960    0.522550    1.828510
     16          1           0        2.213690    0.334470   -0.939210
     17          1           0        0.537840   -1.514130   -1.253070
     18          8           0        2.820480   -1.330770    0.182110
     19          6           0       -0.187210   -2.048720    5.087580
     20          1           0       -0.128760   -1.579980    6.075860
     21          1           0       -0.830080   -2.941670    5.146190
     22          1           0        0.827050   -2.350760    4.774520
     23          6           0        4.194820   -1.004390   -0.094690
     24          1           0        4.319660   -0.702910   -1.146750
     25          1           0        4.563660   -0.199920    0.562600
     26          1           0        4.766330   -1.917770    0.097940
     27          6           0        2.015520    3.040430    1.654160
     28          1           0        1.139880    3.149090    2.314520
     29          1           0        2.909060    2.817070    2.259230
     30          1           0        2.172430    3.977050    1.109410
     31          6           0       -0.888910    1.086110    0.121010
     32          8           0       -0.389690    0.283870   -0.742270
     33          6           0       -1.853410    2.106870   -0.354320
     34          1           0       -1.272210    2.985490   -0.676560
     35          1           0       -2.517890    2.414710    0.459200
     36          1           0       -2.415290    1.733430   -1.215900
 ---------------------------------------------------------------------
                    Distance matrix (angstroms):
                    1          2          3          4          5
     1  C    0.000000
     2  C    1.537200   0.000000
     3  C    2.557102   1.517166   0.000000
     4  C    3.932592   2.543537   1.549706   0.000000
     5  C    4.295196   2.796950   2.541869   1.554159   0.000000
     6  C    3.600539   2.379601   2.643252   2.522810   1.526262
     7  O    2.416467   1.463594   2.444677   2.980468   2.456488
     8  O    5.010044   3.769162   2.478085   1.411006   2.398463
     9  O    3.008771   2.477671   1.495776   2.487561   3.248509
    10  O    1.413737   2.416085   2.951534   4.363641   5.104511
    11  H    1.102801   2.161798   3.489891   4.703602   4.783171
    12  H    1.100934   2.173324   2.806474   4.256234   4.616792
    13  H    2.178069   1.103350   2.130576   2.716408   2.916917
    14  H    2.730112   2.143132   1.096953   2.222946   3.497157
    15  H    4.273409   2.910807   2.138839   1.107708   2.167793
    16  H    5.291366   3.834491   3.364360   2.165272   1.104678
    17  H    4.393107   3.312281   3.735234   3.510261   2.221787
    18  O    4.637147   3.152013   3.364947   2.476266   1.411624
    19  C    2.392391   3.229666   4.003987   5.198365   5.840273
    20  H    3.296965   4.094621   4.586590   5.760451   6.599302
    21  H    2.678848   3.773211   4.779890   6.014672   6.468048
    22  H    2.724099   3.058744   3.911292   4.838099   5.375345
    23  C    5.961525   4.461043   4.423589   3.195542   2.384988
    24  H    6.678893   5.160499   5.022467   3.690193   2.665394
    25  H    6.119935   4.628418   4.308201   2.966146   2.707241
    26  H    6.366660   4.953638   5.162916   4.097434   3.288807
    27  C    5.569409   4.534329   3.075586   2.396517   3.719912
    28  H    5.139665   4.374521   2.869683   2.784247   4.227837
    29  H    5.831178   4.751623   3.426292   2.627224   3.974932
    30  H    6.558664   5.524571   4.060126   3.291774   4.403334
    31  C    3.793343   3.143607   2.445306   2.907137   3.128507
    32  O    4.083946   3.177498   2.870887   2.928622   2.478979
    33  C    4.940963   4.544505   3.762368   4.194886   4.472907
    34  H    5.746297   5.159006   4.142143   4.241980   4.602319
    35  H    4.876676   4.774366   3.975847   4.696969   5.215578
    36  H    5.431751   5.091510   4.554950   4.945204   4.919448
                    6          7          8          9         10
     6  C    0.000000
     7  O    1.346138   0.000000
     8  O    3.352117   4.079501   0.000000
     9  O    2.929026   2.907119   2.733416   0.000000
    10  O    4.732052   3.666984   5.368167   3.541751   0.000000
    11  H    3.936033   2.604104   5.880349   3.980856   2.101132
    12  H    3.720662   2.684776   5.107666   2.665032   2.039947
    13  H    2.888673   2.084547   4.095764   3.416252   2.697018
    14  H    3.730915   3.383687   2.943538   2.029873   2.558187
    15  H    3.327444   3.594741   2.088238   3.380140   4.460053
    16  H    2.154534   3.358907   2.357891   3.768586   6.108464
    17  H    1.094245   1.999283   4.217975   3.898265   5.632800
    18  O    2.325031   2.846302   3.536448   4.396411   5.395222
    19  C    5.579503   4.433952   6.344969   4.862056   1.436494
    20  H    6.472699   5.401225   6.794752   5.407703   2.035524
    21  H    5.996657   4.732423   7.199990   5.504331   2.097708
    22  H    5.297493   4.231793   6.091491   5.036774   2.118049
    23  C    3.616849   4.278880   3.926854   5.479004   6.563288
    24  H    3.830198   4.751060   4.120198   5.858699   7.390641
    25  H    4.141552   4.755003   3.540300   5.429174   6.510489
    26  H    4.314795   4.773974   4.958725   6.323943   6.940226
    27  C    4.666498   5.180769   1.439284   3.310037   5.576081
    28  H    4.895448   5.186108   2.114629   2.876481   4.996475
    29  H    5.115063   5.539088   2.099276   4.044616   5.686701
    30  H    5.358806   6.031237   2.035810   4.046292   6.605953
    31  C    2.542604   2.937772   2.909007   1.301778   4.622476
    32  O    1.617143   2.433589   3.135481   2.301370   5.146169
    33  C    3.900394   4.326568   3.802439   2.362157   5.665330
    34  H    4.354066   4.999750   3.493329   2.882902   6.368238
    35  H    4.634542   4.802023   4.351743   2.481865   5.410658
    36  H    4.114531   4.584120   4.631599   3.224337   6.326016
                   11         12         13         14         15
    11  H    0.000000
    12  H    1.781409   0.000000
    13  H    2.512006   3.087677   0.000000
    14  H    3.753720   3.044942   2.521033   0.000000
    15  H    4.985780   4.814530   2.666708   2.413962   0.000000
    16  H    5.805606   5.486228   4.018342   4.290823   2.809929
    17  H    4.520709   4.463128   3.729279   4.821034   4.260498
    18  O    4.888359   5.216380   2.788040   4.170794   2.484125
    19  C    2.504812   3.251652   3.029945   3.578910   5.034386
    20  H    3.547455   4.018891   3.884477   3.926579   5.499377
    21  H    2.365454   3.432046   3.638656   4.499516   5.932553
    22  H    2.751942   3.761859   2.492832   3.590710   4.505343
    23  C    6.246358   6.572409   3.971941   5.086109   2.895336
    24  H    6.974799   7.166840   4.837328   5.782213   3.620112
    25  H    6.548107   6.746456   4.110232   4.781218   2.396823
    26  H    6.497061   7.089929   4.281865   5.766039   3.658226
    27  C    6.549473   5.672585   4.791727   3.020577   2.605132
    28  H    6.193067   5.138968   4.766050   2.552380   3.073858
    29  H    6.762602   6.121737   4.760387   3.207562   2.347743
    30  H    7.544224   6.566304   5.828929   4.064137   3.562210
    31  C    4.577181   3.314242   4.106552   3.239493   3.979288
    32  O    4.639918   3.778122   4.008489   3.889203   3.996541
    33  C    5.732068   4.229957   5.545688   4.347010   5.258741
    34  H    6.596383   5.141982   6.063823   4.672405   5.273640
    35  H    5.727339   4.050141   5.810745   4.322085   5.681177
    36  H    6.071104   4.652773   6.112316   5.251637   6.041769
                   16         17         18         19         20
    16  H    0.000000
    17  H    2.514817   0.000000
    18  O    2.097278   2.702556   0.000000
    19  C    6.911303   6.404321   5.798732   0.000000
    20  H    7.639594   7.359477   6.595181   1.095368   0.000000
    21  H    7.551803   6.697731   6.368962   1.101851   1.791741
    22  H    6.463740   6.092244   5.109244   1.103611   1.789179
    23  C    2.535870   3.869778   1.439428   6.866494   7.556476
    24  H    2.356765   3.869308   2.099433   7.809606   8.527824
    25  H    2.839606   4.607714   2.112409   6.816471   7.370170
    26  H    3.558685   4.457385   2.034204   7.032156   7.733792
    27  C    3.753273   5.601744   4.682124   6.522257   6.745188
    28  H    4.434176   5.902184   5.238390   6.038895   6.174239
    29  H    4.108146   6.059557   4.639704   6.423579   6.567272
    30  H    4.179346   6.197278   5.427044   7.596291   7.800108
    31  C    3.363801   3.268786   4.427710   5.914927   6.568569
    32  O    2.611309   2.086632   3.710355   6.282446   7.073112
    33  C    4.474908   4.431418   5.826695   7.046944   7.610157
    34  H    4.387299   4.884181   6.009786   7.729541   8.230806
    35  H    5.354512   5.263567   6.527143   6.839311   7.294680
    36  H    4.843666   4.389647   6.225515   7.681332   8.329266
                   21         22         23         24         25
    21  H    0.000000
    22  H    1.798164   0.000000
    23  C    7.514619   6.071556   0.000000
    24  H    8.434036   7.069312   1.101501   0.000000
    25  H    7.590713   6.027324   1.102382   1.798447   0.000000
    26  H    7.606116   6.129911   1.094529   1.795732   1.791087
    27  C    7.488473   6.341454   4.916136   5.212173   4.264316
    28  H    6.999747   6.033060   5.691076   6.076948   5.099741
    29  H    7.448409   6.112930   4.668798   5.097132   3.836468
    30  H    8.554493   7.435338   5.509507   5.621644   4.843972
    31  C    6.440412   6.034215   5.501002   5.651284   5.619555
    32  O    6.728448   6.233515   4.805903   4.828594   5.145135
    33  C    7.535952   7.304816   6.806499   6.828587   6.880466
    34  H    8.320524   7.911810   6.793094   6.715235   6.763116
    35  H    7.314874   7.247090   7.553642   7.684447   7.549525
    36  H    8.052679   7.942198   7.241983   7.162408   7.456986
                   26         27         28         29         30
    26  H    0.000000
    27  C    5.879840   0.000000
    28  H    6.613429   1.102102   0.000000
    29  H    5.526241   1.102004   1.800914   0.000000
    30  H    6.519225   1.094820   1.789963   1.791721   0.000000
    31  C    6.403559   3.821731   3.630890   4.689646   4.325075
    32  O    5.669013   4.373389   4.460161   5.129118   4.861353
    33  C    7.760362   4.458043   4.143515   5.478699   4.674127
    34  H    7.817018   4.030440   3.845972   5.111775   4.004800
    35  H    8.482968   4.729827   4.166630   5.731822   4.986259
    36  H    8.162910   5.438527   5.206457   6.449768   5.611423
                   31         32         33         34         35
    31  C    0.000000
    32  O    1.279868   0.000000
    33  C    1.482616   2.369876   0.000000
    34  H    2.095395   2.842870   1.101637   0.000000
    35  H    2.129114   3.242413   1.094584   1.779736   0.000000
    36  H    2.129833   2.535469   1.094297   1.779094   1.811251
                   36
    36  H    0.000000
 Stoichiometry    C11H19O6(1+)
 Framework group  C1[X(C11H19O6)]
 Deg. of freedom   102
 Full point group                 C1      NOp   1
 Largest Abelian subgroup         C1      NOp   1
 Largest concise Abelian subgroup C1      NOp   1
                         Standard orientation:                         
 ---------------------------------------------------------------------
 Center     Atomic      Atomic             Coordinates (Angstroms)
 Number     Number       Type             X           Y           Z
 ---------------------------------------------------------------------
      1          6           0       -2.670344    0.176637   -0.567122
      2          6           0       -1.287489   -0.465825   -0.372348
      3          6           0       -0.429715    0.236108    0.663657
      4          6           0        0.929746   -0.477490    0.873972
      5          6           0        1.447468   -1.041752   -0.478427
      6          6           0        0.724999   -0.361073   -1.637820
      7          8           0       -0.617306   -0.456123   -1.673451
      8          8           0        1.931574    0.362470    1.404770
      9          8           0       -0.191491    1.660322    0.273516
     10          8           0       -3.380437    0.167387    0.655308
     11          1           0       -3.201965   -0.359707   -1.370791
     12          1           0       -2.554057    1.225608   -0.880480
     13          1           0       -1.399625   -1.517816   -0.059101
     14          1           0       -1.006075    0.347718    1.590295
     15          1           0        0.723761   -1.335351    1.543793
     16          1           0        2.526825   -0.817156   -0.548128
     17          1           0        1.134633   -0.578923   -2.628837
     18          8           0        1.173355   -2.416180   -0.647222
     19          6           0       -4.245264   -0.967148    0.823890
     20          1           0       -4.746850   -0.829392    1.787874
     21          1           0       -5.001013   -1.004895    0.022956
     22          1           0       -3.688294   -1.919702    0.843499
     23          6           0        2.161491   -3.276998   -0.051797
     24          1           0        3.155993   -3.087532   -0.485818
     25          1           0        2.209157   -3.148238    1.042001
     26          1           0        1.847478   -4.300165   -0.280967
     27          6           0        1.742753    0.714401    2.787532
     28          1           0        0.895323    1.405567    2.924568
     29          1           0        1.586751   -0.187573    3.401144
     30          1           0        2.665739    1.211459    3.103223
     31          6           0        0.664628    1.982205   -0.652810
     32          8           0        1.169038    1.189590   -1.521944
     33          6           0        1.064091    3.409267   -0.698334
     34          1           0        1.984588    3.513606   -0.102176
     35          1           0        0.290261    4.038582   -0.247488
     36          1           0        1.285324    3.714179   -1.725744
 ---------------------------------------------------------------------
 Rotational constants (GHZ):      0.5237091      0.4065411      0.3344070
 Leave Link  202 at Tue Oct 24 12:45:25 2017, MaxMem= 13421772800 cpu:         0.6
 (Enter /share/apps//g09/l301.exe)
 Standard basis: 6-311+G(d,p) (5D, 7F)
 Ernie: Thresh=  0.10000D-02 Tol=  0.10000D-05 Strict=F.
 There are   505 symmetry adapted cartesian basis functions of A   symmetry.
 There are   488 symmetry adapted basis functions of A   symmetry.
   488 basis functions,   764 primitive gaussians,   505 cartesian basis functions
    66 alpha electrons       66 beta electrons
       nuclear repulsion energy      1439.9831863425 Hartrees.
 IExCor= 1009 DFT=T Ex+Corr=PBE1PBE ExCW=0 ScaHFX=  0.250000
 ScaDFX=  0.750000  0.750000  1.000000  1.000000 ScalE2=  1.000000  1.000000
 IRadAn=      0 IRanWt=     -1 IRanGd=            0 ICorTp=0 IEmpDi=131
 NAtoms=   36 NActive=   36 NUniq=   36 SFac= 1.00D+00 NAtFMM=   60 NAOKFM=F Big=F
 Integral buffers will be    131072 words long.
 Raffenetti 2 integral format.
 Two-electron integral symmetry is turned on.
 R6Disp:  Grimme-D3 Dispersion energy=       -0.0248789099 Hartrees.
 Nuclear repulsion after empirical dispersion term =     1439.9583074325 Hartrees.
 Leave Link  301 at Tue Oct 24 12:45:25 2017, MaxMem= 13421772800 cpu:         1.6
 (Enter /share/apps//g09/l302.exe)
 NPDir=0 NMtPBC=     1 NCelOv=     1 NCel=       1 NClECP=     1 NCelD=      1
         NCelK=      1 NCelE2=     1 NClLst=     1 CellRange=     0.0.
 One-electron integrals computed using PRISM.
 NBasis=   488 RedAO= T EigKep=  1.80D-06  NBF=   488
 NBsUse=   488 1.00D-06 EigRej= -1.00D+00 NBFU=   488
 Precomputing XC quadrature grid using
 IXCGrd= 4 IRadAn=           0 IRanWt=          -1 IRanGd=           0 AccXCQ= 0.00D+00.
 Generated NRdTot=       0 NPtTot=           0 NUsed=           0 NTot=          32
 NSgBfM=   504   505   505   505   505 MxSgAt=    36 MxSgA2=    36.
 Leave Link  302 at Tue Oct 24 12:45:26 2017, MaxMem= 13421772800 cpu:        11.9
 (Enter /share/apps//g09/l303.exe)
 DipDrv:  MaxL=1.
 Leave Link  303 at Tue Oct 24 12:45:27 2017, MaxMem= 13421772800 cpu:         8.0
 (Enter /share/apps//g09/l401.exe)
 ExpMin= 4.38D-02 ExpMax= 8.59D+03 ExpMxC= 1.30D+03 IAcc=2 IRadAn=         4 AccDes= 0.00D+00
 Harris functional with IExCor= 1009 and IRadAn=       4 diagonalized for initial guess.
 HarFok:  IExCor= 1009 AccDes= 0.00D+00 IRadAn=         4 IDoV= 1 UseB2=F ITyADJ=14
 ICtDFT=  3500011 ScaDFX=  1.000000  1.000000  1.000000  1.000000
 FoFCou: FMM=F IPFlag=           0 FMFlag=      100000 FMFlg1=           0
         NFxFlg=           0 DoJE=T BraDBF=F KetDBF=T FulRan=T
         wScrn=  0.000000 ICntrl=     500 IOpCl=  0 I1Cent=   200000004 NGrid=           0
         NMat0=    1 NMatS0=      1 NMatT0=    0 NMatD0=    1 NMtDS0=    0 NMtDT0=    0
 Petite list used in FoFCou.
 Harris En= -881.103773636321    
 JPrj=0 DoOrth=F DoCkMO=F.
 Leave Link  401 at Tue Oct 24 12:45:28 2017, MaxMem= 13421772800 cpu:        25.2
 (Enter /share/apps//g09/l502.exe)
 Closed shell SCF:
 Using DIIS extrapolation, IDIIS=  1040.
 Integral symmetry usage will be decided dynamically.
 Keep R1 ints in memory in canonical form, NReq=7183787934.
 IVT=      797493 IEndB=      797493 NGot= 13421772800 MDV=  6302761722
 LenX=  6302761722 LenY=  6302506192
 Requested convergence on RMS density matrix=1.00D-08 within 128 cycles.
 Requested convergence on MAX density matrix=1.00D-06.
 Requested convergence on             energy=1.00D-06.
 No special actions if energy rises.
 FoFCou: FMM=F IPFlag=           0 FMFlag=           0 FMFlg1=           0
         NFxFlg=           0 DoJE=F BraDBF=F KetDBF=F FulRan=T
         wScrn=  0.000000 ICntrl=     600 IOpCl=  0 I1Cent=           0 NGrid=           0
         NMat0=    1 NMatS0= 119316 NMatT0=    0 NMatD0=    1 NMtDS0=    0 NMtDT0=    0
 Symmetry not used in FoFCou.

 Cycle   1  Pass 1  IDiag  1:
 E= -880.653154332063    
 DIIS: error= 1.41D-02 at cycle   1 NSaved=   1.
 NSaved= 1 IEnMin= 1 EnMin= -880.653154332063     IErMin= 1 ErrMin= 1.41D-02
 ErrMax= 1.41D-02  0.00D+00 EMaxC= 1.00D-01 BMatC= 3.68D-01 BMatP= 3.68D-01
 IDIUse=3 WtCom= 8.59D-01 WtEn= 1.41D-01
 Coeff-Com:  0.100D+01
 Coeff-En:   0.100D+01
 Coeff:      0.100D+01
 Gap=     0.107 Goal=   None    Shift=    0.000
 GapD=    0.107 DampG=1.000 DampE=0.500 DampFc=0.5000 IDamp=-1.
 Damping current iteration by 5.00D-01
 RMSDP=1.15D-02 MaxDP=1.37D+00              OVMax= 1.17D-01

 Cycle   2  Pass 1  IDiag  1:
 E= -880.778691359950     Delta-E=       -0.125537027888 Rises=F Damp=T
 DIIS: error= 3.56D-03 at cycle   2 NSaved=   2.
 NSaved= 2 IEnMin= 2 EnMin= -880.778691359950     IErMin= 2 ErrMin= 3.56D-03
 ErrMax= 3.56D-03  0.00D+00 EMaxC= 1.00D-01 BMatC= 2.83D-02 BMatP= 3.68D-01
 IDIUse=3 WtCom= 9.64D-01 WtEn= 3.56D-02
 Coeff-Com: -0.196D-01 0.102D+01
 Coeff-En:   0.295D-01 0.971D+00
 Coeff:     -0.179D-01 0.102D+01
 Gap=     0.227 Goal=   None    Shift=    0.000
 RMSDP=5.82D-03 MaxDP=9.78D-01 DE=-1.26D-01 OVMax= 8.09D-02

 Cycle   3  Pass 1  IDiag  1:
 E= -880.911730080306     Delta-E=       -0.133038720356 Rises=F Damp=F
 DIIS: error= 5.25D-03 at cycle   3 NSaved=   3.
 NSaved= 3 IEnMin= 3 EnMin= -880.911730080306     IErMin= 2 ErrMin= 3.56D-03
 ErrMax= 5.25D-03  0.00D+00 EMaxC= 1.00D-01 BMatC= 1.79D-02 BMatP= 2.83D-02
 IDIUse=3 WtCom= 9.48D-01 WtEn= 5.25D-02
 Coeff-Com: -0.945D-01 0.463D+00 0.632D+00
 Coeff-En:   0.000D+00 0.000D+00 0.100D+01
 Coeff:     -0.895D-01 0.438D+00 0.651D+00
 Gap=     0.195 Goal=   None    Shift=    0.000
 RMSDP=1.25D-03 MaxDP=1.04D-01 DE=-1.33D-01 OVMax= 1.92D-02

 Cycle   4  Pass 1  IDiag  1:
 E= -880.922748278939     Delta-E=       -0.011018198633 Rises=F Damp=F
 DIIS: error= 2.57D-03 at cycle   4 NSaved=   4.
 NSaved= 4 IEnMin= 4 EnMin= -880.922748278939     IErMin= 4 ErrMin= 2.57D-03
 ErrMax= 2.57D-03  0.00D+00 EMaxC= 1.00D-01 BMatC= 3.40D-03 BMatP= 1.79D-02
 IDIUse=3 WtCom= 9.74D-01 WtEn= 2.57D-02
 Coeff-Com: -0.452D-01 0.147D+00 0.359D+00 0.539D+00
 Coeff-En:   0.000D+00 0.000D+00 0.121D+00 0.879D+00
 Coeff:     -0.441D-01 0.143D+00 0.353D+00 0.548D+00
 Gap=     0.198 Goal=   None    Shift=    0.000
 RMSDP=8.11D-04 MaxDP=1.57D-01 DE=-1.10D-02 OVMax= 6.25D-03

 Cycle   5  Pass 1  IDiag  1:
 E= -880.925240467905     Delta-E=       -0.002492188966 Rises=F Damp=F
 DIIS: error= 3.80D-04 at cycle   5 NSaved=   5.
 NSaved= 5 IEnMin= 5 EnMin= -880.925240467905     IErMin= 5 ErrMin= 3.80D-04
 ErrMax= 3.80D-04  0.00D+00 EMaxC= 1.00D-01 BMatC= 1.05D-04 BMatP= 3.40D-03
 IDIUse=3 WtCom= 9.96D-01 WtEn= 3.80D-03
 Coeff-Com: -0.115D-01 0.245D-01 0.975D-01 0.225D+00 0.664D+00
 Coeff-En:   0.000D+00 0.000D+00 0.000D+00 0.000D+00 0.100D+01
 Coeff:     -0.115D-01 0.245D-01 0.971D-01 0.224D+00 0.665D+00
 Gap=     0.200 Goal=   None    Shift=    0.000
 RMSDP=1.09D-04 MaxDP=1.13D-02 DE=-2.49D-03 OVMax= 1.26D-03

 Cycle   6  Pass 1  IDiag  1:
 E= -880.925311957868     Delta-E=       -0.000071489962 Rises=F Damp=F
 DIIS: error= 8.40D-05 at cycle   6 NSaved=   6.
 NSaved= 6 IEnMin= 6 EnMin= -880.925311957868     IErMin= 6 ErrMin= 8.40D-05
 ErrMax= 8.40D-05  0.00D+00 EMaxC= 1.00D-01 BMatC= 7.87D-06 BMatP= 1.05D-04
 IDIUse=1 WtCom= 1.00D+00 WtEn= 0.00D+00
 Coeff-Com: -0.415D-02 0.703D-02 0.360D-01 0.948D-01 0.347D+00 0.519D+00
 Coeff:     -0.415D-02 0.703D-02 0.360D-01 0.948D-01 0.347D+00 0.519D+00
 Gap=     0.200 Goal=   None    Shift=    0.000
 RMSDP=6.34D-05 MaxDP=1.03D-02 DE=-7.15D-05 OVMax= 3.68D-04

 Cycle   7  Pass 1  IDiag  1:
 E= -880.925318745427     Delta-E=       -0.000006787559 Rises=F Damp=F
 DIIS: error= 1.45D-05 at cycle   7 NSaved=   7.
 NSaved= 7 IEnMin= 7 EnMin= -880.925318745427     IErMin= 7 ErrMin= 1.45D-05
 ErrMax= 1.45D-05  0.00D+00 EMaxC= 1.00D-01 BMatC= 2.22D-07 BMatP= 7.87D-06
 IDIUse=1 WtCom= 1.00D+00 WtEn= 0.00D+00
 Coeff-Com: -0.655D-03 0.789D-03 0.591D-02 0.188D-01 0.818D-01 0.176D+00
 Coeff-Com:  0.717D+00
 Coeff:     -0.655D-03 0.789D-03 0.591D-02 0.188D-01 0.818D-01 0.176D+00
 Coeff:      0.717D+00
 Gap=     0.200 Goal=   None    Shift=    0.000
 RMSDP=8.19D-06 MaxDP=1.25D-03 DE=-6.79D-06 OVMax= 9.72D-05

 Cycle   8  Pass 1  IDiag  1:
 E= -880.925318840485     Delta-E=       -0.000000095059 Rises=F Damp=F
 DIIS: error= 1.03D-05 at cycle   8 NSaved=   8.
 NSaved= 8 IEnMin= 8 EnMin= -880.925318840485     IErMin= 8 ErrMin= 1.03D-05
 ErrMax= 1.03D-05  0.00D+00 EMaxC= 1.00D-01 BMatC= 1.08D-07 BMatP= 2.22D-07
 IDIUse=1 WtCom= 1.00D+00 WtEn= 0.00D+00
 Coeff-Com:  0.733D-04-0.322D-03-0.726D-03 0.498D-04 0.615D-02 0.363D-01
 Coeff-Com:  0.433D+00 0.525D+00
 Coeff:      0.733D-04-0.322D-03-0.726D-03 0.498D-04 0.615D-02 0.363D-01
 Coeff:      0.433D+00 0.525D+00
 Gap=     0.200 Goal=   None    Shift=    0.000
 RMSDP=5.15D-06 MaxDP=8.67D-04 DE=-9.51D-08 OVMax= 4.08D-05

 Cycle   9  Pass 1  IDiag  1:
 E= -880.925318919307     Delta-E=       -0.000000078821 Rises=F Damp=F
 DIIS: error= 1.83D-06 at cycle   9 NSaved=   9.
 NSaved= 9 IEnMin= 9 EnMin= -880.925318919307     IErMin= 9 ErrMin= 1.83D-06
 ErrMax= 1.83D-06  0.00D+00 EMaxC= 1.00D-01 BMatC= 2.25D-09 BMatP= 1.08D-07
 IDIUse=1 WtCom= 1.00D+00 WtEn= 0.00D+00
 Coeff-Com:  0.673D-04-0.163D-03-0.699D-03-0.121D-02-0.360D-02 0.182D-02
 Coeff-Com:  0.112D+00 0.187D+00 0.706D+00
 Coeff:      0.673D-04-0.163D-03-0.699D-03-0.121D-02-0.360D-02 0.182D-02
 Coeff:      0.112D+00 0.187D+00 0.706D+00
 Gap=     0.200 Goal=   None    Shift=    0.000
 RMSDP=9.57D-07 MaxDP=1.25D-04 DE=-7.88D-08 OVMax= 8.40D-06

 Cycle  10  Pass 1  IDiag  1:
 E= -880.925318920809     Delta-E=       -0.000000001502 Rises=F Damp=F
 DIIS: error= 7.22D-07 at cycle  10 NSaved=  10.
 NSaved=10 IEnMin=10 EnMin= -880.925318920809     IErMin=10 ErrMin= 7.22D-07
 ErrMax= 7.22D-07  0.00D+00 EMaxC= 1.00D-01 BMatC= 5.44D-10 BMatP= 2.25D-09
 IDIUse=1 WtCom= 1.00D+00 WtEn= 0.00D+00
 Coeff-Com:  0.320D-04-0.675D-04-0.349D-03-0.698D-03-0.256D-02-0.169D-02
 Coeff-Com:  0.296D-01 0.626D-01 0.392D+00 0.521D+00
 Coeff:      0.320D-04-0.675D-04-0.349D-03-0.698D-03-0.256D-02-0.169D-02
 Coeff:      0.296D-01 0.626D-01 0.392D+00 0.521D+00
 Gap=     0.200 Goal=   None    Shift=    0.000
 RMSDP=3.33D-07 MaxDP=4.29D-05 DE=-1.50D-09 OVMax= 3.94D-06

 Cycle  11  Pass 1  IDiag  1:
 E= -880.925318921218     Delta-E=       -0.000000000409 Rises=F Damp=F
 DIIS: error= 1.89D-07 at cycle  11 NSaved=  11.
 NSaved=11 IEnMin=11 EnMin= -880.925318921218     IErMin=11 ErrMin= 1.89D-07
 ErrMax= 1.89D-07  0.00D+00 EMaxC= 1.00D-01 BMatC= 3.07D-11 BMatP= 5.44D-10
 IDIUse=1 WtCom= 1.00D+00 WtEn= 0.00D+00
 Coeff-Com:  0.651D-05-0.120D-04-0.831D-04-0.182D-03-0.749D-03-0.896D-03
 Coeff-Com:  0.119D-02 0.746D-02 0.101D+00 0.235D+00 0.657D+00
 Coeff:      0.651D-05-0.120D-04-0.831D-04-0.182D-03-0.749D-03-0.896D-03
 Coeff:      0.119D-02 0.746D-02 0.101D+00 0.235D+00 0.657D+00
 Gap=     0.200 Goal=   None    Shift=    0.000
 RMSDP=8.30D-08 MaxDP=8.51D-06 DE=-4.09D-10 OVMax= 1.04D-06

 Cycle  12  Pass 1  IDiag  1:
 E= -880.925318921244     Delta-E=       -0.000000000025 Rises=F Damp=F
 DIIS: error= 8.91D-08 at cycle  12 NSaved=  12.
 NSaved=12 IEnMin=12 EnMin= -880.925318921244     IErMin=12 ErrMin= 8.91D-08
 ErrMax= 8.91D-08  0.00D+00 EMaxC= 1.00D-01 BMatC= 8.00D-12 BMatP= 3.07D-11
 IDIUse=1 WtCom= 1.00D+00 WtEn= 0.00D+00
 Coeff-Com:  0.267D-06 0.485D-06-0.114D-04-0.312D-04-0.156D-03-0.333D-03
 Coeff-Com: -0.247D-02-0.218D-02 0.187D-01 0.857D-01 0.398D+00 0.503D+00
 Coeff:      0.267D-06 0.485D-06-0.114D-04-0.312D-04-0.156D-03-0.333D-03
 Coeff:     -0.247D-02-0.218D-02 0.187D-01 0.857D-01 0.398D+00 0.503D+00
 Gap=     0.200 Goal=   None    Shift=    0.000
 RMSDP=2.54D-08 MaxDP=2.79D-06 DE=-2.55D-11 OVMax= 4.99D-07

 Cycle  13  Pass 1  IDiag  1:
 E= -880.925318921254     Delta-E=       -0.000000000010 Rises=F Damp=F
 DIIS: error= 3.74D-08 at cycle  13 NSaved=  13.
 NSaved=13 IEnMin=13 EnMin= -880.925318921254     IErMin=13 ErrMin= 3.74D-08
 ErrMax= 3.74D-08  0.00D+00 EMaxC= 1.00D-01 BMatC= 5.86D-13 BMatP= 8.00D-12
 IDIUse=1 WtCom= 1.00D+00 WtEn= 0.00D+00
 Coeff-Com: -0.329D-06 0.110D-05 0.696D-06-0.198D-05-0.166D-04-0.921D-04
 Coeff-Com: -0.135D-02-0.167D-02-0.437D-04 0.213D-01 0.144D+00 0.270D+00
 Coeff-Com:  0.568D+00
 Coeff:     -0.329D-06 0.110D-05 0.696D-06-0.198D-05-0.166D-04-0.921D-04
 Coeff:     -0.135D-02-0.167D-02-0.437D-04 0.213D-01 0.144D+00 0.270D+00
 Coeff:      0.568D+00
 Gap=     0.200 Goal=   None    Shift=    0.000
 RMSDP=9.48D-09 MaxDP=8.63D-07 DE=-1.05D-11 OVMax= 2.06D-07

 SCF Done:  E(RPBE1PBE) =  -880.925318921     A.U. after   13 cycles
            NFock= 13  Conv=0.95D-08     -V/T= 2.0043
 KE= 8.771240292118D+02 PE=-4.922525952071D+03 EE= 1.724518296506D+03
 Leave Link  502 at Tue Oct 24 12:48:55 2017, MaxMem= 13421772800 cpu:       971.8
 (Enter /share/apps//g09/l601.exe)
 Copying SCF densities to generalized density rwf, IOpCl= 0 IROHF=0.

 **********************************************************************

            Population analysis using the SCF density.

 **********************************************************************

 Orbital symmetries:
       Occupied  (A) (A) (A) (A) (A) (A) (A) (A) (A) (A) (A) (A)
                 (A) (A) (A) (A) (A) (A) (A) (A) (A) (A) (A) (A)
                 (A) (A) (A) (A) (A) (A) (A) (A) (A) (A) (A) (A)
                 (A) (A) (A) (A) (A) (A) (A) (A) (A) (A) (A) (A)
                 (A) (A) (A) (A) (A) (A) (A) (A) (A) (A) (A) (A)
                 (A) (A) (A) (A) (A) (A)
       Virtual   (A) (A) (A) (A) (A) (A) (A) (A) (A) (A) (A) (A)
                 (A) (A) (A) (A) (A) (A) (A) (A) (A) (A) (A) (A)
                 (A) (A) (A) (A) (A) (A) (A) (A) (A) (A) (A) (A)
                 (A) (A) (A) (A) (A) (A) (A) (A) (A) (A) (A) (A)
                 (A) (A) (A) (A) (A) (A) (A) (A) (A) (A) (A) (A)
                 (A) (A) (A) (A) (A) (A) (A) (A) (A) (A) (A) (A)
                 (A) (A) (A) (A) (A) (A) (A) (A) (A) (A) (A) (A)
                 (A) (A) (A) (A) (A) (A) (A) (A) (A) (A) (A) (A)
                 (A) (A) (A) (A) (A) (A) (A) (A) (A) (A) (A) (A)
                 (A) (A) (A) (A) (A) (A) (A) (A) (A) (A) (A) (A)
                 (A) (A) (A) (A) (A) (A) (A) (A) (A) (A) (A) (A)
                 (A) (A) (A) (A) (A) (A) (A) (A) (A) (A) (A) (A)
                 (A) (A) (A) (A) (A) (A) (A) (A) (A) (A) (A) (A)
                 (A) (A) (A) (A) (A) (A) (A) (A) (A) (A) (A) (A)
                 (A) (A) (A) (A) (A) (A) (A) (A) (A) (A) (A) (A)
                 (A) (A) (A) (A) (A) (A) (A) (A) (A) (A) (A) (A)
                 (A) (A) (A) (A) (A) (A) (A) (A) (A) (A) (A) (A)
                 (A) (A) (A) (A) (A) (A) (A) (A) (A) (A) (A) (A)
                 (A) (A) (A) (A) (A) (A) (A) (A) (A) (A) (A) (A)
                 (A) (A) (A) (A) (A) (A) (A) (A) (A) (A) (A) (A)
                 (A) (A) (A) (A) (A) (A) (A) (A) (A) (A) (A) (A)
                 (A) (A) (A) (A) (A) (A) (A) (A) (A) (A) (A) (A)
                 (A) (A) (A) (A) (A) (A) (A) (A) (A) (A) (A) (A)
                 (A) (A) (A) (A) (A) (A) (A) (A) (A) (A) (A) (A)
                 (A) (A) (A) (A) (A) (A) (A) (A) (A) (A) (A) (A)
                 (A) (A) (A) (A) (A) (A) (A) (A) (A) (A) (A) (A)
                 (A) (A) (A) (A) (A) (A) (A) (A) (A) (A) (A) (A)
                 (A) (A) (A) (A) (A) (A) (A) (A) (A) (A) (A) (A)
                 (A) (A) (A) (A) (A) (A) (A) (A) (A) (A) (A) (A)
                 (A) (A) (A) (A) (A) (A) (A) (A) (A) (A) (A) (A)
                 (A) (A) (A) (A) (A) (A) (A) (A) (A) (A) (A) (A)
                 (A) (A) (A) (A) (A) (A) (A) (A) (A) (A) (A) (A)
                 (A) (A) (A) (A) (A) (A) (A) (A) (A) (A) (A) (A)
                 (A) (A) (A) (A) (A) (A) (A) (A) (A) (A) (A) (A)
                 (A) (A) (A) (A) (A) (A) (A) (A) (A) (A) (A) (A)
                 (A) (A)
 The electronic state is 1-A.
 Alpha  occ. eigenvalues --  -19.45330 -19.44310 -19.40675 -19.36714 -19.35919
 Alpha  occ. eigenvalues --  -19.33674 -10.57336 -10.51407 -10.46525 -10.44704
 Alpha  occ. eigenvalues --  -10.44697 -10.44262 -10.40747 -10.39783 -10.39057
 Alpha  occ. eigenvalues --  -10.39021 -10.37486  -1.35312  -1.28150  -1.26138
 Alpha  occ. eigenvalues --   -1.22360  -1.21006  -1.18986  -1.01064  -0.98012
 Alpha  occ. eigenvalues --   -0.94920  -0.89252  -0.87897  -0.85605  -0.82791
 Alpha  occ. eigenvalues --   -0.81779  -0.78394  -0.77275  -0.76091  -0.72576
 Alpha  occ. eigenvalues --   -0.71446  -0.68061  -0.67215  -0.66607  -0.66053
 Alpha  occ. eigenvalues --   -0.63773  -0.63746  -0.62736  -0.61847  -0.61238
 Alpha  occ. eigenvalues --   -0.60378  -0.59493  -0.58650  -0.58090  -0.57612
 Alpha  occ. eigenvalues --   -0.57235  -0.56121  -0.55654  -0.54608  -0.54263
 Alpha  occ. eigenvalues --   -0.53421  -0.52773  -0.50639  -0.49323  -0.48732
 Alpha  occ. eigenvalues --   -0.47820  -0.47414  -0.45644  -0.43443  -0.41912
 Alpha  occ. eigenvalues --   -0.40195
 Alpha virt. eigenvalues --   -0.20228  -0.12158  -0.11831  -0.10085  -0.09061
 Alpha virt. eigenvalues --   -0.08445  -0.08354  -0.07466  -0.07020  -0.06778
 Alpha virt. eigenvalues --   -0.06570  -0.06202  -0.05284  -0.04773  -0.04387
 Alpha virt. eigenvalues --   -0.04011  -0.03829  -0.03132  -0.02834  -0.02331
 Alpha virt. eigenvalues --   -0.02281  -0.01495  -0.01261  -0.00750  -0.00640
 Alpha virt. eigenvalues --   -0.00315   0.00340   0.00661   0.00993   0.01376
 Alpha virt. eigenvalues --    0.01557   0.02063   0.02133   0.02372   0.02908
 Alpha virt. eigenvalues --    0.03935   0.04055   0.04513   0.05097   0.05242
 Alpha virt. eigenvalues --    0.05721   0.06376   0.06595   0.06642   0.07079
 Alpha virt. eigenvalues --    0.07416   0.07512   0.07960   0.08490   0.08726
 Alpha virt. eigenvalues --    0.09006   0.09648   0.10057   0.10392   0.10804
 Alpha virt. eigenvalues --    0.11185   0.11483   0.11722   0.12277   0.12483
 Alpha virt. eigenvalues --    0.12917   0.13044   0.13473   0.13949   0.14291
 Alpha virt. eigenvalues --    0.14565   0.14940   0.15280   0.15655   0.16052
 Alpha virt. eigenvalues --    0.16413   0.17331   0.17613   0.18311   0.18691
 Alpha virt. eigenvalues --    0.19065   0.19613   0.19907   0.20292   0.20809
 Alpha virt. eigenvalues --    0.21547   0.21734   0.22126   0.23018   0.23300
 Alpha virt. eigenvalues --    0.23357   0.23916   0.24785   0.25421   0.25493
 Alpha virt. eigenvalues --    0.26681   0.27322   0.27433   0.27839   0.27963
 Alpha virt. eigenvalues --    0.29034   0.29823   0.30141   0.30908   0.31260
 Alpha virt. eigenvalues --    0.32426   0.32781   0.32993   0.33281   0.33668
 Alpha virt. eigenvalues --    0.34885   0.35607   0.36159   0.36947   0.37750
 Alpha virt. eigenvalues --    0.38236   0.39645   0.39996   0.40739   0.41590
 Alpha virt. eigenvalues --    0.42935   0.44858   0.44986   0.45153   0.45796
 Alpha virt. eigenvalues --    0.46262   0.47067   0.47445   0.47771   0.49113
 Alpha virt. eigenvalues --    0.49785   0.50852   0.51800   0.52416   0.53026
 Alpha virt. eigenvalues --    0.54484   0.54884   0.55208   0.55711   0.56226
 Alpha virt. eigenvalues --    0.56606   0.57390   0.58055   0.58411   0.58918
 Alpha virt. eigenvalues --    0.59607   0.60625   0.60865   0.61324   0.61597
 Alpha virt. eigenvalues --    0.62922   0.63159   0.63912   0.64084   0.64665
 Alpha virt. eigenvalues --    0.65872   0.66972   0.67147   0.68149   0.69515
 Alpha virt. eigenvalues --    0.70518   0.73173   0.75263   0.78288   0.79303
 Alpha virt. eigenvalues --    0.81447   0.85153   0.86989   0.88327   0.89156
 Alpha virt. eigenvalues --    0.89623   0.91912   0.92583   0.94608   0.95605
 Alpha virt. eigenvalues --    0.96043   0.97399   0.98594   1.00439   1.01111
 Alpha virt. eigenvalues --    1.01925   1.03860   1.05142   1.05872   1.07252
 Alpha virt. eigenvalues --    1.08438   1.09749   1.11202   1.11840   1.12616
 Alpha virt. eigenvalues --    1.14587   1.16384   1.16726   1.17735   1.19813
 Alpha virt. eigenvalues --    1.20505   1.21708   1.22849   1.23873   1.24641
 Alpha virt. eigenvalues --    1.25810   1.26906   1.27238   1.29470   1.30657
 Alpha virt. eigenvalues --    1.31417   1.32690   1.33147   1.33724   1.34193
 Alpha virt. eigenvalues --    1.34691   1.36555   1.37580   1.38171   1.40098
 Alpha virt. eigenvalues --    1.41100   1.41573   1.42696   1.43807   1.44094
 Alpha virt. eigenvalues --    1.44836   1.45796   1.46348   1.46580   1.47305
 Alpha virt. eigenvalues --    1.47984   1.48702   1.49668   1.49995   1.50572
 Alpha virt. eigenvalues --    1.51250   1.51938   1.52271   1.54902   1.56173
 Alpha virt. eigenvalues --    1.56568   1.56695   1.57462   1.57934   1.58920
 Alpha virt. eigenvalues --    1.59484   1.60058   1.60639   1.60821   1.63018
 Alpha virt. eigenvalues --    1.64014   1.64995   1.66933   1.67816   1.69261
 Alpha virt. eigenvalues --    1.69792   1.69996   1.72262   1.73237   1.75815
 Alpha virt. eigenvalues --    1.77068   1.77590   1.78366   1.80408   1.81116
 Alpha virt. eigenvalues --    1.81493   1.82874   1.84194   1.86167   1.87538
 Alpha virt. eigenvalues --    1.89966   1.91298   1.92083   1.92760   1.94821
 Alpha virt. eigenvalues --    1.96148   1.98220   1.99176   2.00185   2.02520
 Alpha virt. eigenvalues --    2.03619   2.04892   2.06239   2.06775   2.07972
 Alpha virt. eigenvalues --    2.08622   2.09314   2.11053   2.12490   2.13696
 Alpha virt. eigenvalues --    2.16110   2.17467   2.18514   2.19062   2.21492
 Alpha virt. eigenvalues --    2.23156   2.32444   2.32839   2.33096   2.33834
 Alpha virt. eigenvalues --    2.34363   2.37674   2.39294   2.39850   2.40591
 Alpha virt. eigenvalues --    2.41219   2.41617   2.42224   2.42827   2.43506
 Alpha virt. eigenvalues --    2.44215   2.44864   2.45539   2.46228   2.47818
 Alpha virt. eigenvalues --    2.48101   2.48634   2.49167   2.50030   2.53705
 Alpha virt. eigenvalues --    2.55123   2.57423   2.57880   2.60642   2.61027
 Alpha virt. eigenvalues --    2.62981   2.67604   2.69656   2.69782   2.70732
 Alpha virt. eigenvalues --    2.72473   2.73118   2.74998   2.76905   2.78168
 Alpha virt. eigenvalues --    2.78567   2.80226   2.82195   2.84684   2.86035
 Alpha virt. eigenvalues --    2.86570   2.89261   2.91434   2.92000   2.93711
 Alpha virt. eigenvalues --    2.94722   2.95272   2.96771   2.97628   2.98847
 Alpha virt. eigenvalues --    3.00238   3.00778   3.03976   3.05083   3.06264
 Alpha virt. eigenvalues --    3.06518   3.07795   3.10474   3.10997   3.12383
 Alpha virt. eigenvalues --    3.12980   3.14836   3.16582   3.19485   3.20826
 Alpha virt. eigenvalues --    3.24316   3.27646   3.30546   3.35368   3.39359
 Alpha virt. eigenvalues --    3.48546   3.63079   3.65763   3.67285   3.68372
 Alpha virt. eigenvalues --    3.68535   3.68600   3.69638   3.71338   3.71736
 Alpha virt. eigenvalues --    3.74191   3.77136   3.81434   3.86484   3.88932
 Alpha virt. eigenvalues --    3.93276   3.94627   3.95402   3.98450   4.00339
 Alpha virt. eigenvalues --    4.03509   4.07666   4.08419   4.09516   4.12348
 Alpha virt. eigenvalues --    4.19484   4.24734   4.95201   4.97869   5.03216
 Alpha virt. eigenvalues --    5.03974   5.04905   5.07595   5.13447   5.21386
 Alpha virt. eigenvalues --    5.27142   5.31128   5.31500   5.33850   5.47321
 Alpha virt. eigenvalues --    5.56780   5.59104   5.59782   5.64355   5.81391
 Alpha virt. eigenvalues --   23.68558  23.72190  23.75920  23.77025  23.80579
 Alpha virt. eigenvalues --   23.83446  23.87909  23.88861  23.89393  23.90038
 Alpha virt. eigenvalues --   23.90834  49.89102  49.89951  49.93681  49.94990
 Alpha virt. eigenvalues --   49.97045  50.01406
          Condensed to atoms (all electrons):
               1          2          3          4          5          6
     1  C   10.349302  -3.782838   0.728412  -1.345608   0.177914  -0.139132
     2  C   -3.782838  16.818720  -5.547523   0.926604   1.824538  -3.292890
     3  C    0.728412  -5.547523  17.885795 -11.815873   5.154438  -2.087088
     4  C   -1.345608   0.926604 -11.815873  27.411846 -14.399234   7.018665
     5  C    0.177914   1.824538   5.154438 -14.399234  23.899811 -11.591491
     6  C   -0.139132  -3.292890  -2.087088   7.018665 -11.591491  16.790151
     7  O   -0.227646  -0.103508   0.045816   0.111584  -0.340338   0.699074
     8  O   -0.005683   0.053259   0.019141  -0.212607   0.112701  -0.020763
     9  O   -0.042104  -0.172670   0.004344   0.119690  -0.300304   0.356770
    10  O    0.155416  -0.099624   0.012438   0.062130  -0.034598   0.038583
    11  H    0.421327  -0.106269   0.033555  -0.000148   0.001605   0.000483
    12  H    0.282518   0.068932  -0.036422   0.024190  -0.025134   0.039085
    13  H    0.019002   0.230141   0.033550  -0.009572  -0.063555   0.080436
    14  H    0.028061  -0.116464   0.439574   0.012646  -0.027691   0.003631
    15  H    0.004989  -0.038527   0.082216   0.153972   0.078891  -0.014591
    16  H    0.003614  -0.041956   0.021047  -0.025218   0.279828   0.112981
    17  H    0.001981   0.008351   0.015034  -0.028317   0.075421   0.269134
    18  O    0.007165  -0.024974   0.029400  -0.097310   0.282167  -0.106793
    19  C   -0.302414   0.138345  -0.011482   0.002086   0.008935  -0.005212
    20  H    0.026204  -0.001799  -0.006383  -0.000449  -0.000446   0.000450
    21  H    0.015348  -0.021935  -0.002052  -0.000550  -0.000371   0.000791
    22  H   -0.060730   0.047608   0.005976   0.009622   0.000194   0.001383
    23  C   -0.024095   0.048725  -0.076262   0.101552  -0.177811  -0.171155
    24  H   -0.000164  -0.007508  -0.001135   0.007109  -0.045314   0.038727
    25  H    0.001964   0.014067   0.009054   0.036212  -0.057739  -0.023927
    26  H   -0.000619  -0.001537  -0.000663  -0.012801   0.060358  -0.006583
    27  C    0.021186  -0.159467   0.107143  -0.306642  -0.148159   0.140020
    28  H    0.002419   0.001864   0.071715  -0.057947  -0.031314   0.003749
    29  H   -0.000577  -0.001638  -0.011258  -0.031183   0.046260  -0.002790
    30  H   -0.000156  -0.000336   0.003189   0.019181   0.003002  -0.000804
    31  C    0.099944   0.215845   0.172161  -0.950519   0.972498  -1.146850
    32  O   -0.050971   0.276614  -0.098408  -0.103042   0.069927   0.056070
    33  C    0.120211  -0.457018   0.760888  -0.289582   0.276501  -0.628908
    34  H   -0.000126  -0.000614  -0.011686   0.006284  -0.007359   0.002766
    35  H    0.003863  -0.007069   0.007304  -0.002223  -0.004209   0.006309
    36  H   -0.000230   0.001006  -0.002141  -0.000136   0.008821  -0.011543
               7          8          9         10         11         12
     1  C   -0.227646  -0.005683  -0.042104   0.155416   0.421327   0.282518
     2  C   -0.103508   0.053259  -0.172670  -0.099624  -0.106269   0.068932
     3  C    0.045816   0.019141   0.004344   0.012438   0.033555  -0.036422
     4  C    0.111584  -0.212607   0.119690   0.062130  -0.000148   0.024190
     5  C   -0.340338   0.112701  -0.300304  -0.034598   0.001605  -0.025134
     6  C    0.699074  -0.020763   0.356770   0.038583   0.000483   0.039085
     7  O    7.796732  -0.002880   0.051329   0.021074   0.004377   0.008765
     8  O   -0.002880   7.960141   0.082572  -0.000579   0.000047  -0.000124
     9  O    0.051329   0.082572   7.932174   0.005420  -0.001627   0.018891
    10  O    0.021074  -0.000579   0.005420   7.955836  -0.028920  -0.052978
    11  H    0.004377   0.000047  -0.001627  -0.028920   0.476476  -0.024035
    12  H    0.008765  -0.000124   0.018891  -0.052978  -0.024035   0.478373
    13  H   -0.011257  -0.002128   0.012588  -0.003475  -0.008450   0.003965
    14  H    0.006394  -0.009659  -0.052041   0.015520   0.000333  -0.000528
    15  H    0.001017  -0.018416   0.013866  -0.000070   0.000009   0.000004
    16  H    0.005713   0.007113   0.004563   0.000036  -0.000000   0.000020
    17  H   -0.063798  -0.002048  -0.005825  -0.000005  -0.000002  -0.000116
    18  O    0.018825   0.004915  -0.000615  -0.000073   0.000128  -0.000001
    19  C   -0.007103  -0.000795  -0.003017   0.135698  -0.000572   0.000956
    20  H    0.000146   0.000000   0.000021  -0.053765  -0.000261  -0.000131
    21  H    0.000646   0.000004   0.000052  -0.034060   0.007412   0.001298
    22  H   -0.001835  -0.000028  -0.000086  -0.049690  -0.001547  -0.000993
    23  C    0.001321  -0.013494   0.000455  -0.000034  -0.000004   0.000013
    24  H    0.000164   0.001123  -0.000016   0.000001   0.000000   0.000000
    25  H   -0.000148  -0.003407   0.000064  -0.000002   0.000000  -0.000000
    26  H   -0.000222  -0.000024  -0.000007  -0.000002  -0.000000  -0.000000
    27  C    0.003563   0.170427   0.027355   0.001834   0.000093  -0.000292
    28  H    0.000037  -0.041133  -0.003662   0.000080   0.000001   0.000022
    29  H   -0.000001  -0.032184   0.000742  -0.000019  -0.000000  -0.000001
    30  H    0.000017  -0.057927  -0.000514   0.000003   0.000000   0.000000
    31  C   -0.030265   0.066399   0.364296  -0.006854   0.000447   0.001630
    32  O   -0.092422   0.021465  -0.095612  -0.001258   0.000377  -0.001874
    33  C   -0.000678  -0.125504  -0.525801  -0.001181  -0.000737  -0.014347
    34  H    0.000207  -0.001056  -0.000604   0.000008   0.000000  -0.000004
    35  H    0.000051   0.000307  -0.010151   0.000016  -0.000001   0.000028
    36  H   -0.000296   0.000164   0.014196  -0.000002  -0.000001  -0.000037
              13         14         15         16         17         18
     1  C    0.019002   0.028061   0.004989   0.003614   0.001981   0.007165
     2  C    0.230141  -0.116464  -0.038527  -0.041956   0.008351  -0.024974
     3  C    0.033550   0.439574   0.082216   0.021047   0.015034   0.029400
     4  C   -0.009572   0.012646   0.153972  -0.025218  -0.028317  -0.097310
     5  C   -0.063555  -0.027691   0.078891   0.279828   0.075421   0.282167
     6  C    0.080436   0.003631  -0.014591   0.112981   0.269134  -0.106793
     7  O   -0.011257   0.006394   0.001017   0.005713  -0.063798   0.018825
     8  O   -0.002128  -0.009659  -0.018416   0.007113  -0.002048   0.004915
     9  O    0.012588  -0.052041   0.013866   0.004563  -0.005825  -0.000615
    10  O   -0.003475   0.015520  -0.000070   0.000036  -0.000005  -0.000073
    11  H   -0.008450   0.000333   0.000009  -0.000000  -0.000002   0.000128
    12  H    0.003965  -0.000528   0.000004   0.000020  -0.000116  -0.000001
    13  H    0.442545   0.000357   0.001724   0.000016  -0.000239  -0.002389
    14  H    0.000357   0.394055  -0.007033   0.000028   0.000083  -0.000025
    15  H    0.001724  -0.007033   0.484248   0.000571  -0.000242   0.003552
    16  H    0.000016   0.000028   0.000571   0.431810  -0.005890  -0.036890
    17  H   -0.000239   0.000083  -0.000242  -0.005890   0.436545   0.004033
    18  O   -0.002389  -0.000025   0.003552  -0.036890   0.004033   7.893760
    19  C    0.000180  -0.003670  -0.000591  -0.000033  -0.000102  -0.000112
    20  H   -0.000167   0.000048   0.000002  -0.000000  -0.000000   0.000001
    21  H   -0.000356  -0.000009   0.000005   0.000000   0.000000   0.000005
    22  H    0.003194   0.000325  -0.000097  -0.000000  -0.000002  -0.000016
    23  C   -0.002874  -0.000529   0.013174  -0.002963  -0.000434   0.133863
    24  H   -0.000004  -0.000002  -0.000254   0.011023  -0.000322  -0.041233
    25  H    0.000002   0.000027   0.005717  -0.002096   0.000079  -0.023562
    26  H   -0.000126   0.000000  -0.000524  -0.000292  -0.000022  -0.071229
    27  C    0.001139   0.001111   0.006982   0.008152  -0.001168   0.008807
    28  H   -0.000013   0.000758  -0.004207   0.000065   0.000001  -0.000072
    29  H    0.000045  -0.000295   0.014083  -0.000009  -0.000003   0.000114
    30  H    0.000005  -0.000154  -0.000021  -0.000145  -0.000001   0.000008
    31  C    0.009032   0.029921  -0.001839  -0.014989   0.048070  -0.002077
    32  O   -0.005938  -0.003743   0.001448   0.009138  -0.060345   0.010255
    33  C    0.004156   0.013182  -0.004902  -0.018160   0.023310   0.005275
    34  H    0.000002   0.000045  -0.000006   0.000111   0.000016   0.000011
    35  H    0.000009   0.000007   0.000003   0.000001   0.000015  -0.000006
    36  H   -0.000004   0.000007   0.000000  -0.000011   0.000024  -0.000002
              19         20         21         22         23         24
     1  C   -0.302414   0.026204   0.015348  -0.060730  -0.024095  -0.000164
     2  C    0.138345  -0.001799  -0.021935   0.047608   0.048725  -0.007508
     3  C   -0.011482  -0.006383  -0.002052   0.005976  -0.076262  -0.001135
     4  C    0.002086  -0.000449  -0.000550   0.009622   0.101552   0.007109
     5  C    0.008935  -0.000446  -0.000371   0.000194  -0.177811  -0.045314
     6  C   -0.005212   0.000450   0.000791   0.001383  -0.171155   0.038727
     7  O   -0.007103   0.000146   0.000646  -0.001835   0.001321   0.000164
     8  O   -0.000795   0.000000   0.000004  -0.000028  -0.013494   0.001123
     9  O   -0.003017   0.000021   0.000052  -0.000086   0.000455  -0.000016
    10  O    0.135698  -0.053765  -0.034060  -0.049690  -0.000034   0.000001
    11  H   -0.000572  -0.000261   0.007412  -0.001547  -0.000004   0.000000
    12  H    0.000956  -0.000131   0.001298  -0.000993   0.000013   0.000000
    13  H    0.000180  -0.000167  -0.000356   0.003194  -0.002874  -0.000004
    14  H   -0.003670   0.000048  -0.000009   0.000325  -0.000529  -0.000002
    15  H   -0.000591   0.000002   0.000005  -0.000097   0.013174  -0.000254
    16  H   -0.000033  -0.000000   0.000000  -0.000000  -0.002963   0.011023
    17  H   -0.000102  -0.000000   0.000000  -0.000002  -0.000434  -0.000322
    18  O   -0.000112   0.000001   0.000005  -0.000016   0.133863  -0.041233
    19  C    5.147388   0.413635   0.408131   0.401225   0.000836  -0.000002
    20  H    0.413635   0.472517  -0.018325  -0.026497  -0.000001   0.000000
    21  H    0.408131  -0.018325   0.505381  -0.042476   0.000003  -0.000000
    22  H    0.401225  -0.026497  -0.042476   0.554773  -0.000071   0.000000
    23  C    0.000836  -0.000001   0.000003  -0.000071   5.213178   0.412371
    24  H   -0.000002   0.000000  -0.000000   0.000000   0.412371   0.502603
    25  H    0.000029  -0.000000  -0.000000   0.000000   0.406594  -0.039312
    26  H   -0.000016  -0.000000  -0.000000   0.000001   0.407629  -0.018327
    27  C   -0.000851  -0.000050   0.000000   0.000180  -0.002689   0.001858
    28  H   -0.000063   0.000001   0.000000   0.000001  -0.000573   0.000001
    29  H   -0.000002   0.000000   0.000000  -0.000002   0.000482  -0.000013
    30  H    0.000007   0.000000   0.000000  -0.000000  -0.000006  -0.000002
    31  C   -0.011331   0.000091   0.000273  -0.001222   0.002177  -0.001167
    32  O    0.000289  -0.000003  -0.000007   0.000034   0.001438  -0.000216
    33  C    0.002394   0.000004  -0.000016  -0.000065   0.003654   0.000007
    34  H   -0.000005   0.000000  -0.000000   0.000000  -0.000038   0.000000
    35  H    0.000071  -0.000000  -0.000000   0.000000  -0.000014  -0.000000
    36  H   -0.000009  -0.000000   0.000000   0.000000   0.000006  -0.000000
              25         26         27         28         29         30
     1  C    0.001964  -0.000619   0.021186   0.002419  -0.000577  -0.000156
     2  C    0.014067  -0.001537  -0.159467   0.001864  -0.001638  -0.000336
     3  C    0.009054  -0.000663   0.107143   0.071715  -0.011258   0.003189
     4  C    0.036212  -0.012801  -0.306642  -0.057947  -0.031183   0.019181
     5  C   -0.057739   0.060358  -0.148159  -0.031314   0.046260   0.003002
     6  C   -0.023927  -0.006583   0.140020   0.003749  -0.002790  -0.000804
     7  O   -0.000148  -0.000222   0.003563   0.000037  -0.000001   0.000017
     8  O   -0.003407  -0.000024   0.170427  -0.041133  -0.032184  -0.057927
     9  O    0.000064  -0.000007   0.027355  -0.003662   0.000742  -0.000514
    10  O   -0.000002  -0.000002   0.001834   0.000080  -0.000019   0.000003
    11  H    0.000000  -0.000000   0.000093   0.000001  -0.000000   0.000000
    12  H   -0.000000  -0.000000  -0.000292   0.000022  -0.000001   0.000000
    13  H    0.000002  -0.000126   0.001139  -0.000013   0.000045   0.000005
    14  H    0.000027   0.000000   0.001111   0.000758  -0.000295  -0.000154
    15  H    0.005717  -0.000524   0.006982  -0.004207   0.014083  -0.000021
    16  H   -0.002096  -0.000292   0.008152   0.000065  -0.000009  -0.000145
    17  H    0.000079  -0.000022  -0.001168   0.000001  -0.000003  -0.000001
    18  O   -0.023562  -0.071229   0.008807  -0.000072   0.000114   0.000008
    19  C    0.000029  -0.000016  -0.000851  -0.000063  -0.000002   0.000007
    20  H   -0.000000  -0.000000  -0.000050   0.000001   0.000000   0.000000
    21  H   -0.000000  -0.000000   0.000000   0.000000   0.000000   0.000000
    22  H    0.000000   0.000001   0.000180   0.000001  -0.000002  -0.000000
    23  C    0.406594   0.407629  -0.002689  -0.000573   0.000482  -0.000006
    24  H   -0.039312  -0.018327   0.001858   0.000001  -0.000013  -0.000002
    25  H    0.535026  -0.023436  -0.004491  -0.000017   0.000146   0.000018
    26  H   -0.023436   0.463818   0.000096   0.000000  -0.000003  -0.000000
    27  C   -0.004491   0.000096   5.249531   0.403215   0.394023   0.412862
    28  H   -0.000017   0.000000   0.403215   0.523088  -0.036845  -0.024431
[...]
 3340,-0.00057788,0.00141429,-0.00131287,0.00006450,0.00001495,0.000124
 35,-0.00004325,-0.00033948,0.00010827,0.00012295,-0.00015324,0.0000897
 1,0.00177825,0.00169019,-0.00081149,0.00006126,-0.00018034,-0.00008498
 ,-0.00075847,-0.00047471,-0.00020159,-0.00068413,-0.00015369,0.0000556
 5,-0.00300094,-0.00041268,0.00094229,0.00031042,-0.00128230,-0.0014511
 1,0.00050044,-0.00035871,-0.00051089,0.00053433,0.00011381,-0.00026323
 ,0.03688313,0.07570624,0.78265748,-0.00129241,-0.00015245,-0.00015243,
 0.00221609,0.00236215,0.00706407,-0.00853722,0.00287203,-0.00468012,0.
 00222062,0.00072171,0.00508231,-0.01957694,0.03983932,-0.00329826,-0.0
 6415025,-0.02248047,0.00527968,0.02093721,0.00677381,-0.01998702,-0.00
 039910,-0.00450475,-0.00334653,0.03360182,0.00371965,0.02588250,0.0003
 7573,-0.00030098,-0.00072434,-0.00009366,-0.00021415,0.00024818,0.0003
 1457,0.00023452,-0.00009933,-0.00074200,-0.00142610,-0.00072433,0.0016
 5613,-0.00086245,0.00003941,0.00083426,0.00040017,-0.00046062,0.000521
 80,0.00059152,-0.00021126,-0.00691914,0.00929137,-0.00324063,-0.015435
 40,-0.00400452,-0.00202052,-0.00012100,0.00000179,-0.00005798,-0.00000
 380,0.00001543,-0.00003634,0.00001378,-0.00000640,0.00001703,0.0000967
 0,-0.00004935,0.00003879,0.00319436,0.00279259,-0.00280262,-0.00002899
 ,-0.00025607,0.00027962,-0.00082964,-0.00039824,-0.00011411,-0.0011924
 5,-0.00028326,0.00015348,-0.00147292,0.00129324,0.00132522,0.00024894,
 -0.00019265,-0.00069942,0.00017532,-0.00041114,-0.00042824,-0.00010081
 ,-0.00021510,-0.00012118,-0.15641280,0.11926091,0.07184895,0.22481250,
 0.00234880,0.00032572,-0.00037755,-0.00314551,-0.00811506,-0.01714698,
 0.00883167,-0.00818844,0.01131727,-0.00168342,-0.00077755,-0.00194639,
 0.00382570,-0.01149524,-0.00239523,-0.00148531,-0.00888881,-0.02624657
 ,-0.00312806,-0.04691461,0.05884427,-0.00172675,0.00110694,-0.00208210
 ,-0.00129475,0.01831661,-0.04926146,-0.00049464,0.00051402,0.00219516,
 0.00018425,0.00053792,-0.00056591,-0.00051840,-0.00033343,-0.00005208,
 0.00133543,0.00231564,0.00302074,-0.00145357,0.00126110,-0.00002470,-0
 .00112516,0.00044909,0.00115769,0.00079608,0.00012195,0.00023303,0.026
 09754,-0.02331286,0.00860266,0.00545494,0.00378755,0.00097007,-0.00005
 000,0.00033426,-0.00015956,0.00000462,-0.00003444,0.00012237,0.0000007
 0,-0.00003089,-0.00002641,-0.00014490,0.00003443,-0.00012142,-0.002180
 49,-0.00081596,0.00101645,0.00006069,0.00007617,-0.00013700,0.00069038
 ,0.00022740,0.00009794,0.00041219,0.00010681,0.00001498,-0.00003298,0.
 00073464,-0.00073212,-0.00006378,-0.00006939,0.00051703,-0.00038179,-0
 .00025255,-0.00008991,0.00017619,0.00015969,0.00007260,0.12640029,-0.2
 3656713,-0.11909705,-0.18979988,0.34779374,0.00031915,-0.00004844,0.00
 097560,-0.00370683,-0.00023000,-0.00159690,0.01234484,-0.00659773,0.01
 004198,0.00119201,0.00204663,-0.00270415,-0.01119871,0.00306974,-0.001
 66706,-0.00717369,0.00672375,-0.08452129,-0.01258394,0.03264877,-0.006
 76587,-0.00096876,-0.00013273,0.00112140,0.01706785,-0.04279283,-0.085
 59667,-0.00019319,0.00061143,-0.00050048,-0.00009927,0.00022667,-0.000
 25667,-0.00049930,-0.00037884,-0.00004524,0.00029606,0.00093634,-0.000
 17597,-0.00142996,0.00054068,0.00033532,-0.00063816,0.00031376,0.00141
 221,-0.00093404,-0.00085895,0.00083960,0.01572677,-0.01655588,0.007856
 97,0.00176170,-0.00061836,0.00322047,0.00021968,-0.00049282,0.00049321
 ,-0.00001080,-0.00001959,-0.00004029,0.00001468,0.00011584,-0.00003149
 ,-0.00004100,0.00004646,-0.00000376,-0.00093340,0.00014727,0.00028142,
 -0.00009422,0.00005230,-0.00000010,0.00037009,0.00016181,0.00005087,0.
 00006658,-0.00000948,0.00000918,0.00059613,-0.00008834,-0.00078597,-0.
 00016625,0.00035636,0.00055927,-0.00021098,-0.00000575,0.00017818,-0.0
 0011183,0.00002465,0.00008836,0.08690140,-0.13523086,-0.26128523,-0.09
 534640,0.16022478,0.40835489,-0.00025684,-0.00005889,0.00004788,-0.000
 94491,0.00100524,0.00007795,0.00424099,0.00343601,0.00068224,0.0007436
 4,-0.00032658,0.00058244,0.00025102,-0.00042882,0.00017458,0.00575942,
 -0.00119195,0.00221205,0.00018995,0.00129518,-0.00239585,-0.00016740,0
 .00002993,-0.00018045,-0.00124091,0.01012233,-0.01377168,0.00006672,0.
 00002814,-0.00009581,-0.00000697,-0.00000003,0.00000354,0.00002910,-0.
 00006621,-0.00003343,0.00004271,0.00021881,-0.00003962,0.00045133,-0.0
 0022952,0.00006551,0.00010361,0.00009894,-0.00025767,-0.00006467,-0.00
 006878,-0.00003199,-0.00064611,0.00043535,-0.00021338,0.00012201,-0.00
 003127,0.00008786,0.00000582,-0.00002786,0.00003606,0.00000064,-0.0000
 0252,-0.00000610,0.00000291,0.00001065,-0.00000206,0.00000965,-0.00000
 233,0.00000259,0.00002703,-0.00004568,0.00004367,-0.00001149,0.0000006
 7,-0.00000135,-0.00001524,0.00000546,0.00000788,0.00001081,0.00000527,
 -0.00001243,0.00007315,0.00008342,-0.00004232,0.00000432,-0.00000309,0
 .00004981,-0.00004229,-0.00004500,0.00000188,-0.00002486,0.00000123,0.
 00000822,-0.15742338,0.07163773,-0.03452971,-0.00972020,0.02630883,-0.
 00162412,0.55360773,-0.00008975,0.00001745,-0.00030880,-0.00135308,0.0
 0033816,-0.00134968,0.00089619,0.00683128,-0.00378329,0.00128053,-0.00
 155772,0.00101720,-0.00013864,-0.00135496,0.00019006,-0.00060621,0.009
 23411,-0.00296658,-0.00073204,-0.00071044,0.00141392,-0.00045081,0.000
 89049,0.00040060,0.00646281,0.00338784,0.01067002,0.00005611,-0.000110
 52,0.00044543,0.00001801,-0.00001221,0.00003156,0.00009790,0.00001767,
 -0.00002410,0.00016609,0.00029368,0.00019503,0.00023235,0.00001549,-0.
 00007160,0.00035009,0.00005930,-0.00041980,-0.00009644,-0.00011252,-0.
 00000139,0.00015345,-0.00009959,0.00012761,0.00147909,-0.00006342,0.00
 014435,-0.00006629,0.00018070,-0.00014410,0.00001441,-0.00000553,0.000
 02690,-0.00000409,-0.00003370,-0.00000026,0.00000173,-0.00001372,-0.00
 000570,-0.00052156,-0.00023116,0.00029387,0.00000896,0.00003403,-0.000
 04611,0.00005035,0.00005317,0.00001067,0.00009983,0.00000154,-0.000016
 00,0.00001800,-0.00040719,-0.00036934,-0.00000060,-0.00004501,0.000140
 23,-0.00002486,0.00004805,0.00005948,0.00009098,0.00007403,-0.00001061
 ,0.06170092,-0.14765093,0.03554154,0.03083620,-0.02954801,-0.00759044,
 0.00336808,0.51154996,-0.00013585,-0.00003096,0.00027230,-0.00162451,-
 0.00055990,-0.00219028,0.00559366,-0.00137683,0.00019593,0.00004324,0.
 00053022,-0.00098097,-0.00029309,-0.00095434,-0.00054760,-0.00216774,0
 .00260406,-0.00505495,-0.00077963,-0.00154417,0.00381758,-0.00017691,-
 0.00024153,0.00030686,-0.03433399,0.02915273,-0.03178572,0.00004021,0.
 00021350,-0.00014254,0.00006471,0.00006801,-0.00010158,-0.00003471,-0.
 00006546,0.00000257,0.00028999,0.00066283,0.00024433,-0.00091372,0.000
 62347,-0.00021331,-0.00025992,-0.00006030,0.00034619,0.00001140,0.0000
 9715,0.00011136,0.00103777,-0.00084605,0.00037144,0.00035990,0.0002449
 5,0.00024619,0.00003834,-0.00010815,0.00012812,-0.00000415,-0.00000517
 ,-0.00000879,0.00000795,0.00003568,-0.00001203,0.00000552,-0.00000288,
 -0.00001120,-0.00001315,-0.00006667,0.00001492,-0.00000676,0.00000233,
 0.00001373,0.00006173,0.00002332,0.00001221,0.00003375,0.00001330,0.00
 000167,0.00024594,0.00018866,0.00015355,0.00002549,0.00006605,0.000075
 39,-0.00002427,0.00003303,-0.00000290,0.00000121,0.00000111,0.00000108
 ,-0.03092484,0.03463027,-0.09386763,0.01943969,-0.02810142,0.01030927,
 -0.00669459,0.04321321,0.60828705,-0.00003469,-0.00001246,0.00006437,0
 .00012688,-0.00014799,0.00019261,-0.00022261,-0.00139306,0.00034510,-0
 .00018934,0.00095088,-0.00048464,0.00006657,0.00034865,-0.00011546,-0.
 00046682,-0.00150491,0.00025142,0.00003147,0.00006504,-0.00005955,0.00
 045350,-0.00061016,0.00022824,-0.00224730,0.00020255,-0.00158095,0.000
 00551,0.00003803,-0.00009208,0.00000278,0.00000542,-0.00001049,-0.0000
 3241,0.00000081,0.00000443,-0.00000348,0.00001441,-0.00002011,-0.00020
 727,0.00008227,-0.00003244,-0.00012678,-0.00008479,0.00022019,-0.00001
 178,0.00005836,0.00003525,0.00001453,-0.00002394,-0.00000736,-0.000337
 50,-0.00002838,-0.00000479,0.00001434,-0.00003895,0.00003161,-0.000001
 75,0.00000106,-0.00000563,0.00000033,0.00000954,-0.00000185,0.00000180
 ,0.00000158,0.00000149,0.00011003,0.00005499,-0.00007022,-0.00000367,-
 0.00000298,0.00001465,-0.00001449,-0.00000957,-0.00001101,-0.00002326,
 -0.00000388,0.00000474,-0.00001868,0.00002917,-0.00015192,-0.00000380,
 0.00003148,-0.00002860,0.00003448,-0.00006062,0.00004519,-0.00012755,-
 0.00010816,-0.00002959,0.01599474,0.01753031,-0.00560396,-0.00293568,0
 .00148744,0.00168150,-0.12032705,-0.11464190,0.03640427,0.12836358,-0.
 00001876,-0.00001145,0.00007698,-0.00011472,0.00015499,-0.00001021,0.0
 0063958,0.00017583,0.00034387,0.00009751,-0.00033201,0.00012443,0.0000
 5939,-0.00036874,0.00004311,0.00140377,0.00011998,0.00011688,-0.000083
 33,0.00033582,-0.00038325,-0.00055461,0.00000735,-0.00046123,0.0008387
 4,0.00061986,-0.00216519,-0.00000450,0.00003169,-0.00008826,-0.0000031
 3,0.00000722,-0.00001204,-0.00001703,-0.00001877,0.00000037,0.00000726
 ,0.00002776,0.00000078,0.00007786,-0.00002310,0.00001408,-0.00003581,0
 .00009856,-0.00006568,0.00002296,-0.00002055,-0.00002482,-0.00008454,0
 .00002896,-0.00001828,0.00003270,0.00008399,0.00001102,0.00001408,-0.0
 0003788,0.00003759,-0.00000214,0.00000003,-0.00000564,0.00000120,0.000
 00834,-0.00000124,0.00000105,0.00000218,0.00000010,0.00005029,-0.00001
 517,0.00002206,-0.00000252,-0.00000228,0.00000095,0.00000665,-0.000000
 07,0.00000400,0.00000455,0.00000710,-0.00000357,0.00014219,0.00047318,
 0.00029774,0.00005378,0.00000804,-0.00001702,-0.00003003,-0.00007867,-
 0.00006066,-0.00005739,-0.00001310,0.00002286,-0.01254243,-0.02511568,
 0.00761743,0.00124708,0.00151374,0.00068120,-0.11831384,-0.21468204,0.
 05812484,0.12587265,0.23552406,0.00005614,0.00000413,0.00002426,0.0001
 2955,-0.00011431,0.00001116,-0.00060226,-0.00096350,0.00018838,-0.0001
 5283,0.00059382,-0.00043766,-0.00010828,-0.00009245,0.00008381,-0.0001
 0921,0.00036435,-0.00017190,-0.00001048,-0.00006031,0.00010610,0.00041
 020,-0.00044751,0.00000185,-0.00226071,0.00041955,-0.00078865,-0.00001
 117,-0.00001193,-0.00000552,-0.00000701,0.00000279,-0.00000571,-0.0000
 1207,-0.00000849,0.00000822,-0.00000089,-0.00001856,0.00000093,-0.0001
 2756,0.00009146,-0.00004240,-0.00007007,-0.00005502,0.00013863,0.00001
 667,0.00000463,0.00002057,0.00001260,-0.00003177,0.00002358,0.00009505
 ,-0.00002810,-0.00002540,-0.00000001,0.00000602,-0.00000388,-0.0000004
 7,0.00000261,-0.00000212,-0.00000213,-0.00000180,-0.00000038,-0.000000
 28,0.00000149,0.00000007,-0.00003186,-0.00000618,0.00003573,0.00000311
 ,-0.00000040,-0.00000671,0.00000252,0.00000084,-0.00000502,0.00000596,
 -0.00000043,-0.00000306,-0.00017647,0.00008138,0.00013024,0.00000424,0
 .00006621,-0.00021828,0.00009315,-0.00007756,-0.00003727,-0.00013663,-
 0.00006067,0.00005286,0.00663525,0.01024395,-0.00614447,0.00130592,-0.
 00157395,-0.00037414,0.03777025,0.05858410,-0.05548241,-0.04037548,-0.
 06418941,0.06092349,-0.00001140,-0.00000893,0.00000505,0.00019543,0.00
 019120,0.00035835,-0.00029839,0.00015358,-0.00030338,0.00005000,0.0000
 0962,0.00013096,0.00006506,0.00008894,0.00005293,0.00118682,-0.0010245
 2,0.00110310,0.00008474,0.00038627,-0.00081713,-0.00001190,-0.00017239
 ,-0.00020974,0.00181951,-0.00040752,-0.00026976,-0.00000633,-0.0000544
 0,-0.00000597,0.00000139,-0.00002107,0.00001649,0.00002110,0.00003345,
 -0.00000584,-0.00004100,-0.00010025,-0.00004079,0.00005571,-0.00003186
 ,-0.00000611,0.00002870,0.00003251,-0.00003651,0.00000816,-0.00000624,
 -0.00002758,-0.00023628,0.00016844,-0.00009972,-0.00009361,-0.00003365
 ,-0.00003390,-0.00000384,0.00001774,-0.00002088,0.00000130,0.00000258,
 -0.00000160,-0.00000095,-0.00000859,0.00000214,0.00000136,-0.00000142,
 0.00000361,0.00003742,0.00002234,-0.00000719,-0.00000048,-0.00000228,-
 0.00000013,-0.00001273,-0.00000682,-0.00000485,-0.00000863,-0.00000198
 ,-0.00000024,-0.00008108,0.00015927,0.00021924,0.00000565,0.00000822,-
 0.00011432,0.00004278,-0.00004780,-0.00004842,-0.00002670,-0.00001812,
 0.00000414,-0.01349275,0.00036810,0.01745461,-0.00239896,0.00427907,-0
 .00123059,-0.15942070,0.05087259,0.12505201,-0.00986718,0.00523906,0.0
 1052418,0.16900515,0.00023600,-0.00003047,0.00014175,-0.00010850,-0.00
 015142,-0.00036389,0.00024382,-0.00056972,0.00053961,-0.00012475,0.000
 13804,-0.00027830,-0.00007912,-0.00037690,-0.00008442,-0.00006978,0.00
 128316,-0.00121463,-0.00037308,-0.00033237,0.00089137,-0.00010562,-0.0
 0012882,-0.00010052,-0.00216303,0.00063739,-0.00165846,-0.00009183,0.0
 0005880,-0.00011264,-0.00002515,0.00002160,-0.00002718,-0.00006118,-0.
 00003151,0.00001689,0.00001837,0.00006038,0.00004259,-0.00008254,0.000
 08288,-0.00001058,-0.00008417,0.00000700,0.00008442,0.00002128,0.00001
 011,0.00001765,0.00020914,-0.00017658,0.00008570,0.00015792,0.00005672
 ,0.00004593,0.00003001,-0.00007003,0.00005492,-0.00000508,0.00000321,-
 0.00001022,0.00000009,0.00000822,-0.00000009,-0.00000981,0.00001260,-0
 .00000185,-0.00000340,-0.00001866,0.00002460,-0.00000160,-0.00000033,0
 .00000053,0.00001744,0.00000489,0.00000128,0.00001413,0.00000521,-0.00
 000080,0.00000912,0.00016170,0.00018166,-0.00000074,0.00004572,-0.0000
 6539,0.00001681,-0.00002070,-0.00003559,-0.00002939,-0.00000593,0.0000
 2840,0.01579977,-0.00903780,-0.01892677,0.00438016,-0.00484567,0.00219
 061,0.04799391,-0.06012907,-0.05328640,-0.01656985,0.00850870,0.018784
 21,-0.05546579,0.06830500,-0.00006700,0.00000255,0.00006444,0.00007100
 ,0.00009242,0.00017006,-0.00004936,-0.00034811,0.00058526,-0.00005273,
 0.00018184,-0.00011875,0.00013439,0.00000914,0.00000112,0.00063287,-0.
 00017655,0.00085744,0.00010449,0.00017145,-0.00053934,-0.00000972,-0.0
 0014848,-0.00009460,-0.00072193,0.00116655,-0.00148033,0.00002771,-0.0
 0002471,-0.00006807,0.00001256,-0.00000923,-0.00000311,0.00000963,0.00
 001804,0.00002824,-0.00000563,-0.00001222,-0.00003672,0.00001733,-0.00
 004401,0.00000698,-0.00004814,0.00000181,0.00003159,-0.00000628,0.0000
 1024,-0.00001284,-0.00019190,0.00016239,-0.00007720,-0.00012943,0.0000
 1433,-0.00000834,-0.00000782,-0.00000188,-0.00000429,-0.00000329,0.000
 00279,-0.00000387,0.00000033,0.00000075,0.00000196,0.00000926,-0.00000
 630,0.00000157,0.00005792,0.00001069,-0.00002521,-0.00000228,-0.000002
 45,0.00000507,-0.00000824,-0.00000413,0.00000051,-0.00000923,0.0000007
 9,0.00000085,-0.00001138,0.00009540,0.00008091,-0.00000459,-0.00000399
 ,-0.00000662,-0.00000124,-0.00000671,-0.00001392,0.00000367,-0.0000128
 0,-0.00001080,-0.00854551,0.00020660,0.01028078,-0.00200202,0.00408442
 ,0.00014665,0.13105607,-0.05667082,-0.20246384,0.00355818,-0.00294136,
 -0.00581989,-0.14004375,0.05797227,0.21151503,-0.00001099,-0.00000375,
 0.00005570,-0.00031443,-0.00003166,-0.00038768,0.00106061,0.00022536,-
 0.00000080,0.00015428,-0.00003230,-0.00007710,0.00001032,-0.00022299,-
 0.00012136,0.00004650,0.00090009,-0.00028201,-0.00010474,-0.00020615,0
 .00046349,-0.00015992,0.00000643,-0.00000061,-0.00184264,0.00274333,-0
 .00230787,-0.00000439,0.00001918,-0.00001809,0.00001271,0.00000595,-0.
 00001500,-0.00000867,0.00000050,0.00000484,0.00005499,0.00010534,0.000
 04756,-0.00010221,0.00008796,-0.00003358,-0.00002870,0.00001729,0.0000
 2210,-0.00002307,0.00000889,0.00001256,0.00000915,0.00002064,0.0000084
 3,0.00009400,0.00003338,0.00007490,0.00000664,-0.00001103,0.00001133,-
 0.00000053,0.00000055,-0.00000197,0.00000043,0.00000245,-0.00000104,0.
 00000078,-0.00000081,-0.00000114,-0.00000296,-0.00001890,-0.00000695,-
 0.00000302,0.00000163,0.00000473,0.00000919,0.00000492,0.00000247,0.00
 000795,0.00000143,0.00000120,0.00005774,0.00008989,0.00009219,-0.00000
 051,0.00000849,0.00000887,-0.00000383,-0.00000532,-0.00001150,-0.00000
 140,-0.00000097,-0.00000471,-0.01043788,-0.01227243,-0.01459324,0.0011
 4352,0.00001458,0.00063697,-0.11542956,-0.03952840,-0.11036894,-0.0080
 1750,-0.00394755,-0.01286889,0.01340260,0.00630646,0.01622606,0.120425
 57,0.00009898,0.00000531,-0.00001967,0.00045049,0.00002962,0.00042895,
 -0.00092299,-0.00047138,0.00043929,-0.00017910,-0.00014179,0.00012865,
 -0.00001590,0.00017551,0.00000225,-0.00001739,-0.00055097,0.00027808,-
 0.00004694,0.00005534,-0.00033719,-0.00002182,0.00017469,-0.00009240,0
 .00449003,-0.00368356,0.00356440,-0.00004786,-0.00002848,-0.00001090,-
 0.00001078,-0.00001714,0.00002046,-0.00001298,0.00003183,0.00001077,-0
 .00006586,-0.00015452,-0.00004785,0.00016391,-0.00013817,0.00006866,0.
 00002825,0.00002701,-0.00004178,0.00000038,-0.00000860,-0.00002140,0.0
 0003333,0.00000012,-0.00001885,-0.00009641,-0.00002221,-0.00002920,0.0
 0000405,-0.00000118,-0.00000885,-0.00000117,0.00000098,-0.00000097,-0.
 00000169,-0.00000505,0.00000443,-0.00000472,0.00000483,0.00000220,0.00
 001955,0.00001916,-0.00001610,0.00000076,0.00000038,0.00000069,-0.0000
 0660,-0.00000680,-0.00000342,-0.00000623,-0.00000009,0.00000222,0.0000
 1024,-0.00006543,-0.00004212,0.00001176,-0.00003480,0.00005632,-0.0000
 2452,0.00002807,0.00001146,0.00005118,0.00002367,-0.00001438,0.0129234
 5,0.00888387,0.02134977,-0.00107569,0.00047262,0.00053198,-0.04524280,
 -0.07625923,-0.08327850,-0.01154303,-0.00701789,-0.02150919,-0.0046193
 9,-0.00348532,-0.00379071,0.04567750,0.08215955,-0.00005699,0.00001922
 ,-0.00005934,-0.00020738,-0.00000230,-0.00024410,0.00035407,0.00001309
 ,0.00005178,0.00001908,-0.00000541,-0.00006927,-0.00006597,-0.00024444
 ,0.00003972,-0.00006813,0.00129331,-0.00021466,-0.00002843,-0.00016534
 ,0.00028346,0.00008926,0.00004315,0.00011151,-0.00280187,0.00104712,0.
 00044909,0.00003773,-0.00000678,0.00008962,0.00000662,0.00000683,-0.00
 000281,0.00002484,-0.00002495,-0.00001524,0.00005517,0.00005381,0.0000
 3022,-0.00005293,0.00004663,-0.00002867,-0.00000075,-0.00001694,0.0000
 1864,-0.00000303,-0.00000430,0.00001542,0.00000863,-0.00001753,0.00002
 832,0.00026105,-0.00000956,0.00001951,-0.00001296,0.00003503,-0.000019
 60,0.00000281,-0.00000232,0.00000614,-0.00000044,-0.00000238,-0.000002
 22,0.00000224,-0.00000399,-0.00000253,-0.00008879,-0.00004129,0.000050
 25,0.00000376,0.00000747,-0.00000795,0.00001158,0.00000979,0.00000051,
 0.00001798,0.00000073,-0.00000241,-0.00001894,-0.00008602,-0.00008597,
 0.00000186,0.00000959,0.00000905,0.00000496,0.00000375,0.00001642,-0.0
 0001086,0.00000081,0.00000429,-0.00448872,-0.00123979,-0.01090247,0.00
 254885,-0.00235365,0.00007646,-0.11297791,-0.07872714,-0.23204599,0.00
 560290,0.00290758,0.00782502,-0.01159837,-0.00492667,-0.01299070,0.123
 42909,0.08238289,0.24756850\\0.00000761,-0.00000255,-0.00000947,-0.000
 00667,0.00001528,0.00001158,0.00003108,-0.00001487,0.00000414,-0.00001
 574,-0.00000759,-0.00000403,-0.00001767,0.00000195,0.00000385,0.000009
 90,0.00000142,-0.00000733,-0.00000110,-0.00000052,0.00000042,0.0000056
 7,-0.00000883,-0.00000455,-0.00001210,0.00000524,-0.00004332,-0.000015
 96,0.00000134,0.00000664,-0.00000097,0.00000702,0.00000932,0.00001153,
 0.00000532,0.00000767,0.00000204,0.00000235,-0.00000885,-0.00000095,-0
 .00000387,-0.00000229,0.00000146,0.00000124,-0.00000942,-0.00000415,-0
 .00000499,-0.00000187,-0.00001346,0.00000666,0.00000305,-0.00001985,-0
 .00000288,-0.00000553,0.00002384,-0.00001647,0.00000953,0.00000904,-0.
 00000321,-0.00000320,0.00000973,0.00000662,0.00000121,0.00000093,0.000
 00255,0.00000194,0.00002822,0.00000481,-0.00001464,-0.00001164,-0.0000
 0541,-0.00000327,-0.00000751,-0.00000840,-0.00001260,-0.00000995,0.000
 00122,-0.00001126,0.00000325,0.00001051,0.00001594,0.00000859,-0.00000
 158,-0.00000561,0.00000005,-0.00000204,-0.00001040,0.00000109,-0.00000
 480,0.00000022,0.00001667,0.00000182,0.00003487,-0.00001808,0.00000362
 ,0.00002014,-0.00000837,-0.00000109,-0.00000371,-0.00000319,0.00000054
 ,0.00001246,-0.00000078,0.00000313,0.00000609,-0.00000257,0.00000646,0
 .00001225\\\@


 One man practicing sportsmanship is far better than 50 preaching it.
 -- Knute K. Rockne
 Job cpu time:       0 days  6 hours 50 minutes 14.9 seconds.
 File lengths (MBytes):  RWF=    766 Int=      0 D2E=      0 Chk=     19 Scr=      1
 Normal termination of Gaussian 09 at Tue Oct 24 14:29:23 2017.
