 Entering Gaussian System, Link 0=g09
 Initial command:
 /share/apps//g09/l1.exe "/scratch/Gau-39638.inp" -scrdir="/scratch/"
 Entering Link 1 = /share/apps//g09/l1.exe PID=     39639.
  
 Copyright (c) 1988,1990,1992,1993,1995,1998,2003,2009,2013,
            Gaussian, Inc.  All Rights Reserved.
  
 This is part of the Gaussian(R) 09 program.  It is based on
 the Gaussian(R) 03 system (copyright 2003, Gaussian, Inc.),
 the Gaussian(R) 98 system (copyright 1998, Gaussian, Inc.),
 the Gaussian(R) 94 system (copyright 1995, Gaussian, Inc.),
 the Gaussian 92(TM) system (copyright 1992, Gaussian, Inc.),
 the Gaussian 90(TM) system (copyright 1990, Gaussian, Inc.),
 the Gaussian 88(TM) system (copyright 1988, Gaussian, Inc.),
 the Gaussian 86(TM) system (copyright 1986, Carnegie Mellon
 University), and the Gaussian 82(TM) system (copyright 1983,
 Carnegie Mellon University). Gaussian is a federally registered
 trademark of Gaussian, Inc.
  
 This software contains proprietary and confidential information,
 including trade secrets, belonging to Gaussian, Inc.
  
 This software is provided under written license and may be
 used, copied, transmitted, or stored only in accord with that
 written license.
  
 The following legend is applicable only to US Government
 contracts under FAR:
  
                    RESTRICTED RIGHTS LEGEND
  
 Use, reproduction and disclosure by the US Government is
 subject to restrictions as set forth in subparagraphs (a)
 and (c) of the Commercial Computer Software - Restricted
 Rights clause in FAR 52.227-19.
  
 Gaussian, Inc.
 340 Quinnipiac St., Bldg. 40, Wallingford CT 06492
  
  
 ---------------------------------------------------------------
 Warning -- This program may not be used in any manner that
 competes with the business of Gaussian, Inc. or will provide
 assistance to any competitor of Gaussian, Inc.  The licensee
 of this program is prohibited from giving any competitor of
 Gaussian, Inc. access to this program.  By using this program,
 the user acknowledges that Gaussian, Inc. is engaged in the
 business of creating and licensing software in the field of
 computational chemistry and represents and warrants to the
 licensee that it is not a competitor of Gaussian, Inc. and that
 it will not use this program in any manner prohibited above.
 ---------------------------------------------------------------
  

 Cite this work as:
 Gaussian 09, Revision D.01,
 M. J. Frisch, G. W. Trucks, H. B. Schlegel, G. E. Scuseria, 
 M. A. Robb, J. R. Cheeseman, G. Scalmani, V. Barone, B. Mennucci, 
 G. A. Petersson, H. Nakatsuji, M. Caricato, X. Li, H. P. Hratchian, 
 A. F. Izmaylov, J. Bloino, G. Zheng, J. L. Sonnenberg, M. Hada, 
 M. Ehara, K. Toyota, R. Fukuda, J. Hasegawa, M. Ishida, T. Nakajima, 
 Y. Honda, O. Kitao, H. Nakai, T. Vreven, J. A. Montgomery, Jr., 
 J. E. Peralta, F. Ogliaro, M. Bearpark, J. J. Heyd, E. Brothers, 
 K. N. Kudin, V. N. Staroverov, T. Keith, R. Kobayashi, J. Normand, 
 K. Raghavachari, A. Rendell, J. C. Burant, S. S. Iyengar, J. Tomasi, 
 M. Cossi, N. Rega, J. M. Millam, M. Klene, J. E. Knox, J. B. Cross, 
 V. Bakken, C. Adamo, J. Jaramillo, R. Gomperts, R. E. Stratmann, 
 O. Yazyev, A. J. Austin, R. Cammi, C. Pomelli, J. W. Ochterski, 
 R. L. Martin, K. Morokuma, V. G. Zakrzewski, G. A. Voth, 
 P. Salvador, J. J. Dannenberg, S. Dapprich, A. D. Daniels, 
 O. Farkas, J. B. Foresman, J. V. Ortiz, J. Cioslowski, 
 and D. J. Fox, Gaussian, Inc., Wallingford CT, 2013.
 
 ******************************************
 Gaussian 09:  EM64L-G09RevD.01 24-Apr-2013
                24-Oct-2017 
 ******************************************
 %nproc=10
 Will use up to   10 processors via shared memory.
 %mem=60GB
 %chk=Ac-4_cGalMe.chk
 -------------------------------------------------------------------
 #P PBE1PBE/6-311+G(d,p) opt optcyc=999 freq EmpiricalDispersion=GD3
 -------------------------------------------------------------------
 1/6=999,14=-1,18=20,19=15,26=3,38=1/1,3;
 2/9=110,12=2,17=6,18=5,40=1/2;
 3/5=4,6=6,7=111,11=2,16=1,25=1,30=1,71=1,74=-13,124=31/1,2,3;
 4//1;
 5/5=2,38=5/2;
 6/7=2,8=2,9=2,10=2,28=1/1;
 7//1,2,3,16;
 1/6=999,14=-1,18=20,19=15,26=3/3(2);
 2/9=110/2;
 99//99;
 2/9=110/2;
 3/5=4,6=6,7=111,11=2,16=1,25=1,30=1,71=1,74=-13,124=31/1,2,3;
 4/5=5,16=3,69=1/1;
 5/5=2,38=5/2;
 7//1,2,3,16;
 1/6=999,14=-1,18=20,19=15,26=3/3(-5);
 2/9=110/2;
 6/7=2,8=2,9=2,10=2,19=2,28=1/1;
 99/9=1/99;
 Leave Link    1 at Tue Oct 24 12:49:09 2017, MaxMem=  8053063680 cpu:         0.6
 (Enter /share/apps//g09/l101.exe)
 -------
 disacch
 -------
 Symbolic Z-matrix:
 Charge =  1 Multiplicity = 1
 C                    -0.03706  -0.48683   4.50233 
 C                     1.15135  -1.03868   3.69356 
 C                     1.99896  -0.00413   2.94724 
 C                     1.15437   0.89891   2.01608 
 C                     0.04174   0.07149   1.29784 
 C                    -0.4465   -1.11161   2.13344 
 O                     0.47453  -1.90023   2.73016 
 O                     0.56448   1.92093   2.80787 
 O                     2.6895    0.72287   3.96946 
 O                    -1.13163  -0.3762    3.49778 
 H                     0.13307   0.52188   4.89245 
 H                    -0.35678  -1.19149   5.2782 
 H                     1.78865  -1.68201   4.3117 
 H                     2.7297   -0.55042   2.33089 
 H                     1.8132    1.33762   1.24873 
 H                    -0.81504   0.74648   1.15054 
 H                    -1.24299  -1.70402   1.6648 
 O                     0.32575  -0.43939   0.005 
 C                    -2.42119  -0.94457   3.92495 
 H                    -3.12756  -0.73433   3.11643 
 H                    -2.31787  -2.02174   4.10792 
 H                    -2.72066  -0.4091    4.83158 
 C                     1.58422  -1.11015  -0.21577 
 H                     2.43904  -0.43612  -0.05336 
 H                     1.69106  -2.01557   0.40085 
 H                     1.56425  -1.40041  -1.27121 
 C                     0.34558   3.14364   2.08858 
 H                     1.29428   3.52994   1.68231 
 H                    -0.37636   3.01794   1.26352 
 H                    -0.06256   3.85753   2.81202 
 C                     3.80572   1.42627   3.52456 
 O                     4.1545    1.40163   2.36474 
 C                     4.4422    2.17644   4.65322 
 H                     4.59311   1.52182   5.52054 
 H                     3.77648   2.9923    4.96827 
 H                     5.39596   2.59349   4.31902 
 
 NAtoms=     36 NQM=       36 NQMF=       0 NMMI=      0 NMMIF=      0
                NMic=       0 NMicF=      0.
                    Isotopes and Nuclear Properties:
 (Nuclear quadrupole moments (NQMom) in fm**2, nuclear magnetic moments (NMagM)
  in nuclear magnetons)

  Atom         1           2           3           4           5           6           7           8           9          10
 IAtWgt=          12          12          12          12          12          12          16          16          16          16
 AtmWgt=  12.0000000  12.0000000  12.0000000  12.0000000  12.0000000  12.0000000  15.9949146  15.9949146  15.9949146  15.9949146
 NucSpn=           0           0           0           0           0           0           0           0           0           0
 AtZEff=   0.0000000   0.0000000   0.0000000   0.0000000   0.0000000   0.0000000   0.0000000   0.0000000   0.0000000   0.0000000
 NQMom=    0.0000000   0.0000000   0.0000000   0.0000000   0.0000000   0.0000000   0.0000000   0.0000000   0.0000000   0.0000000
 NMagM=    0.0000000   0.0000000   0.0000000   0.0000000   0.0000000   0.0000000   0.0000000   0.0000000   0.0000000   0.0000000
 AtZNuc=   6.0000000   6.0000000   6.0000000   6.0000000   6.0000000   6.0000000   8.0000000   8.0000000   8.0000000   8.0000000

  Atom        11          12          13          14          15          16          17          18          19          20
 IAtWgt=           1           1           1           1           1           1           1          16          12           1
 AtmWgt=   1.0078250   1.0078250   1.0078250   1.0078250   1.0078250   1.0078250   1.0078250  15.9949146  12.0000000   1.0078250
 NucSpn=           1           1           1           1           1           1           1           0           0           1
 AtZEff=   0.0000000   0.0000000   0.0000000   0.0000000   0.0000000   0.0000000   0.0000000   0.0000000   0.0000000   0.0000000
 NQMom=    0.0000000   0.0000000   0.0000000   0.0000000   0.0000000   0.0000000   0.0000000   0.0000000   0.0000000   0.0000000
 NMagM=    2.7928460   2.7928460   2.7928460   2.7928460   2.7928460   2.7928460   2.7928460   0.0000000   0.0000000   2.7928460
 AtZNuc=   1.0000000   1.0000000   1.0000000   1.0000000   1.0000000   1.0000000   1.0000000   8.0000000   6.0000000   1.0000000

  Atom        21          22          23          24          25          26          27          28          29          30
 IAtWgt=           1           1          12           1           1           1          12           1           1           1
 AtmWgt=   1.0078250   1.0078250  12.0000000   1.0078250   1.0078250   1.0078250  12.0000000   1.0078250   1.0078250   1.0078250
 NucSpn=           1           1           0           1           1           1           0           1           1           1
 AtZEff=   0.0000000   0.0000000   0.0000000   0.0000000   0.0000000   0.0000000   0.0000000   0.0000000   0.0000000   0.0000000
 NQMom=    0.0000000   0.0000000   0.0000000   0.0000000   0.0000000   0.0000000   0.0000000   0.0000000   0.0000000   0.0000000
 NMagM=    2.7928460   2.7928460   0.0000000   2.7928460   2.7928460   2.7928460   0.0000000   2.7928460   2.7928460   2.7928460
 AtZNuc=   1.0000000   1.0000000   6.0000000   1.0000000   1.0000000   1.0000000   6.0000000   1.0000000   1.0000000   1.0000000

  Atom        31          32          33          34          35          36
 IAtWgt=          12          16          12           1           1           1
 AtmWgt=  12.0000000  15.9949146  12.0000000   1.0078250   1.0078250   1.0078250
 NucSpn=           0           0           0           1           1           1
 AtZEff=   0.0000000   0.0000000   0.0000000   0.0000000   0.0000000   0.0000000
 NQMom=    0.0000000   0.0000000   0.0000000   0.0000000   0.0000000   0.0000000
 NMagM=    0.0000000   0.0000000   0.0000000   2.7928460   2.7928460   2.7928460
 AtZNuc=   6.0000000   8.0000000   6.0000000   1.0000000   1.0000000   1.0000000
 Leave Link  101 at Tue Oct 24 12:49:09 2017, MaxMem=  8053063680 cpu:         3.2
 (Enter /share/apps//g09/l103.exe)

 GradGradGradGradGradGradGradGradGradGradGradGradGradGradGradGradGradGrad
 Berny optimization.
 Initialization pass.
                           ----------------------------
                           !    Initial Parameters    !
                           ! (Angstroms and Degrees)  !
 --------------------------                            --------------------------
 ! Name  Definition              Value          Derivative Info.                !
 --------------------------------------------------------------------------------
 ! R1    R(1,2)                  1.5398         estimate D2E/DX2                !
 ! R2    R(1,10)                 1.4898         estimate D2E/DX2                !
 ! R3    R(1,11)                 1.0948         estimate D2E/DX2                !
 ! R4    R(1,12)                 1.0958         estimate D2E/DX2                !
 ! R5    R(2,3)                  1.5316         estimate D2E/DX2                !
 ! R6    R(2,7)                  1.4589         estimate D2E/DX2                !
 ! R7    R(2,13)                 1.0964         estimate D2E/DX2                !
 ! R8    R(3,4)                  1.5479         estimate D2E/DX2                !
 ! R9    R(3,9)                  1.4319         estimate D2E/DX2                !
 ! R10   R(3,14)                 1.101          estimate D2E/DX2                !
 ! R11   R(4,5)                  1.5615         estimate D2E/DX2                !
 ! R12   R(4,8)                  1.4211         estimate D2E/DX2                !
 ! R13   R(4,15)                 1.1024         estimate D2E/DX2                !
 ! R14   R(5,6)                  1.5285         estimate D2E/DX2                !
 ! R15   R(5,16)                 1.1006         estimate D2E/DX2                !
 ! R16   R(5,18)                 1.4188         estimate D2E/DX2                !
 ! R17   R(6,7)                  1.3514         estimate D2E/DX2                !
 ! R18   R(6,17)                 1.0977         estimate D2E/DX2                !
 ! R19   R(8,27)                 1.4354         estimate D2E/DX2                !
 ! R20   R(9,31)                 1.3924         estimate D2E/DX2                !
 ! R21   R(10,19)                1.4726         estimate D2E/DX2                !
 ! R22   R(18,23)                1.4431         estimate D2E/DX2                !
 ! R23   R(19,20)                1.094          estimate D2E/DX2                !
 ! R24   R(19,21)                1.0975         estimate D2E/DX2                !
 ! R25   R(19,22)                1.0947         estimate D2E/DX2                !
 ! R26   R(23,24)                1.1006         estimate D2E/DX2                !
 ! R27   R(23,25)                1.1006         estimate D2E/DX2                !
 ! R28   R(23,26)                1.0948         estimate D2E/DX2                !
 ! R29   R(27,28)                1.102          estimate D2E/DX2                !
 ! R30   R(27,29)                1.1035         estimate D2E/DX2                !
 ! R31   R(27,30)                1.0953         estimate D2E/DX2                !
 ! R32   R(31,32)                1.2114         estimate D2E/DX2                !
 ! R33   R(31,33)                1.4972         estimate D2E/DX2                !
 ! R34   R(33,34)                1.0971         estimate D2E/DX2                !
 ! R35   R(33,35)                1.0991         estimate D2E/DX2                !
 ! R36   R(33,36)                1.0933         estimate D2E/DX2                !
 ! A1    A(2,1,10)             103.857          estimate D2E/DX2                !
 ! A2    A(2,1,11)             113.4177         estimate D2E/DX2                !
 ! A3    A(2,1,12)             111.5074         estimate D2E/DX2                !
 ! A4    A(10,1,11)            106.6202         estimate D2E/DX2                !
 ! A5    A(10,1,12)            108.1085         estimate D2E/DX2                !
 ! A6    A(11,1,12)            112.6763         estimate D2E/DX2                !
 ! A7    A(1,2,3)              116.1671         estimate D2E/DX2                !
 ! A8    A(1,2,7)              101.5626         estimate D2E/DX2                !
 ! A9    A(1,2,13)             111.271          estimate D2E/DX2                !
 ! A10   A(3,2,7)              109.503          estimate D2E/DX2                !
 ! A11   A(3,2,13)             110.4498         estimate D2E/DX2                !
 ! A12   A(7,2,13)             107.1842         estimate D2E/DX2                !
 ! A13   A(2,3,4)              112.6593         estimate D2E/DX2                !
 ! A14   A(2,3,9)              105.1873         estimate D2E/DX2                !
 ! A15   A(2,3,14)             107.7539         estimate D2E/DX2                !
 ! A16   A(4,3,9)              113.3532         estimate D2E/DX2                !
 ! A17   A(4,3,14)             108.3514         estimate D2E/DX2                !
 ! A18   A(9,3,14)             109.3582         estimate D2E/DX2                !
 ! A19   A(3,4,5)              110.8762         estimate D2E/DX2                !
 ! A20   A(3,4,8)              108.1134         estimate D2E/DX2                !
 ! A21   A(3,4,15)             108.954          estimate D2E/DX2                !
 ! A22   A(5,4,8)              109.9737         estimate D2E/DX2                !
 ! A23   A(5,4,15)             108.4527         estimate D2E/DX2                !
 ! A24   A(8,4,15)             110.4689         estimate D2E/DX2                !
 ! A25   A(4,5,6)              112.7233         estimate D2E/DX2                !
 ! A26   A(4,5,16)             106.9331         estimate D2E/DX2                !
 ! A27   A(4,5,18)             117.8575         estimate D2E/DX2                !
 ! A28   A(6,5,16)             107.4096         estimate D2E/DX2                !
 ! A29   A(6,5,18)             106.4613         estimate D2E/DX2                !
 ! A30   A(16,5,18)            104.7556         estimate D2E/DX2                !
 ! A31   A(5,6,7)              118.3839         estimate D2E/DX2                !
 ! A32   A(5,6,17)             114.5888         estimate D2E/DX2                !
 ! A33   A(7,6,17)             111.5982         estimate D2E/DX2                !
 ! A34   A(2,7,6)              105.2566         estimate D2E/DX2                !
 ! A35   A(4,8,27)             113.3738         estimate D2E/DX2                !
 ! A36   A(3,9,31)             114.5192         estimate D2E/DX2                !
 ! A37   A(1,10,19)            114.7805         estimate D2E/DX2                !
 ! A38   A(5,18,23)            118.7727         estimate D2E/DX2                !
 ! A39   A(10,19,20)           106.0733         estimate D2E/DX2                !
 ! A40   A(10,19,21)           110.1664         estimate D2E/DX2                !
 ! A41   A(10,19,22)           106.9186         estimate D2E/DX2                !
 ! A42   A(20,19,21)           111.877          estimate D2E/DX2                !
 ! A43   A(20,19,22)           109.9645         estimate D2E/DX2                !
 ! A44   A(21,19,22)           111.5783         estimate D2E/DX2                !
 ! A45   A(18,23,24)           111.7208         estimate D2E/DX2                !
 ! A46   A(18,23,25)           112.4153         estimate D2E/DX2                !
 ! A47   A(18,23,26)           104.7626         estimate D2E/DX2                !
 ! A48   A(24,23,25)           110.2255         estimate D2E/DX2                !
 ! A49   A(24,23,26)           108.5893         estimate D2E/DX2                !
 ! A50   A(25,23,26)           108.8906         estimate D2E/DX2                !
 ! A51   A(8,27,28)            110.6143         estimate D2E/DX2                !
 ! A52   A(8,27,29)            112.1733         estimate D2E/DX2                !
 ! A53   A(8,27,30)            106.3236         estimate D2E/DX2                !
 ! A54   A(28,27,29)           109.1181         estimate D2E/DX2                !
 ! A55   A(28,27,30)           109.6239         estimate D2E/DX2                !
 ! A56   A(29,27,30)           108.9237         estimate D2E/DX2                !
 ! A57   A(9,31,32)            121.7675         estimate D2E/DX2                !
 ! A58   A(9,31,33)            110.6734         estimate D2E/DX2                !
 ! A59   A(32,31,33)           127.5561         estimate D2E/DX2                !
 ! A60   A(31,33,34)           110.8223         estimate D2E/DX2                !
 ! A61   A(31,33,35)           109.2996         estimate D2E/DX2                !
 ! A62   A(31,33,36)           109.3625         estimate D2E/DX2                !
 ! A63   A(34,33,35)           107.4353         estimate D2E/DX2                !
 ! A64   A(34,33,36)           110.4437         estimate D2E/DX2                !
 ! A65   A(35,33,36)           109.4419         estimate D2E/DX2                !
 ! D1    D(10,1,2,3)            84.8815         estimate D2E/DX2                !
 ! D2    D(10,1,2,7)           -33.8176         estimate D2E/DX2                !
 ! D3    D(10,1,2,13)         -147.5996         estimate D2E/DX2                !
 ! D4    D(11,1,2,3)           -30.4517         estimate D2E/DX2                !
 ! D5    D(11,1,2,7)          -149.1508         estimate D2E/DX2                !
 ! D6    D(11,1,2,13)           97.0673         estimate D2E/DX2                !
 ! D7    D(12,1,2,3)          -158.9318         estimate D2E/DX2                !
 ! D8    D(12,1,2,7)            82.3692         estimate D2E/DX2                !
 ! D9    D(12,1,2,13)          -31.4128         estimate D2E/DX2                !
 ! D10   D(2,1,10,19)          131.9731         estimate D2E/DX2                !
 ! D11   D(11,1,10,19)        -107.9724         estimate D2E/DX2                !
 ! D12   D(12,1,10,19)          13.4211         estimate D2E/DX2                !
 ! D13   D(1,2,3,4)            -54.2295         estimate D2E/DX2                !
 ! D14   D(1,2,3,9)             69.7175         estimate D2E/DX2                !
 ! D15   D(1,2,3,14)          -173.6954         estimate D2E/DX2                !
 ! D16   D(7,2,3,4)             60.0346         estimate D2E/DX2                !
 ! D17   D(7,2,3,9)           -176.0184         estimate D2E/DX2                !
 ! D18   D(7,2,3,14)           -59.4313         estimate D2E/DX2                !
 ! D19   D(13,2,3,4)           177.847          estimate D2E/DX2                !
 ! D20   D(13,2,3,9)           -58.2061         estimate D2E/DX2                !
 ! D21   D(13,2,3,14)           58.3811         estimate D2E/DX2                !
 ! D22   D(1,2,7,6)             53.9695         estimate D2E/DX2                !
 ! D23   D(3,2,7,6)            -69.3964         estimate D2E/DX2                !
 ! D24   D(13,2,7,6)           170.7688         estimate D2E/DX2                !
 ! D25   D(2,3,4,5)            -39.4922         estimate D2E/DX2                !
 ! D26   D(2,3,4,8)             81.132          estimate D2E/DX2                !
 ! D27   D(2,3,4,15)          -158.7776         estimate D2E/DX2                !
 ! D28   D(9,3,4,5)           -158.798          estimate D2E/DX2                !
 ! D29   D(9,3,4,8)            -38.1738         estimate D2E/DX2                !
 ! D30   D(9,3,4,15)            81.9166         estimate D2E/DX2                !
 ! D31   D(14,3,4,5)            79.6265         estimate D2E/DX2                !
 ! D32   D(14,3,4,8)          -159.7492         estimate D2E/DX2                !
 ! D33   D(14,3,4,15)          -39.6589         estimate D2E/DX2                !
 ! D34   D(2,3,9,31)           161.3407         estimate D2E/DX2                !
 ! D35   D(4,3,9,31)           -75.1537         estimate D2E/DX2                !
 ! D36   D(14,3,9,31)           45.8561         estimate D2E/DX2                !
 ! D37   D(3,4,5,6)             30.3392         estimate D2E/DX2                !
 ! D38   D(3,4,5,16)           148.1518         estimate D2E/DX2                !
 ! D39   D(3,4,5,18)           -94.3288         estimate D2E/DX2                !
 ! D40   D(8,4,5,6)            -89.1759         estimate D2E/DX2                !
 ! D41   D(8,4,5,16)            28.6367         estimate D2E/DX2                !
 ! D42   D(8,4,5,18)           146.1561         estimate D2E/DX2                !
 ! D43   D(15,4,5,6)           149.9254         estimate D2E/DX2                !
 ! D44   D(15,4,5,16)          -92.262          estimate D2E/DX2                !
 ! D45   D(15,4,5,18)           25.2574         estimate D2E/DX2                !
 ! D46   D(3,4,8,27)           150.3622         estimate D2E/DX2                !
 ! D47   D(5,4,8,27)           -88.4521         estimate D2E/DX2                !
 ! D48   D(15,4,8,27)           31.2268         estimate D2E/DX2                !
 ! D49   D(4,5,6,7)            -46.0581         estimate D2E/DX2                !
 ! D50   D(4,5,6,17)           178.9201         estimate D2E/DX2                !
 ! D51   D(16,5,6,7)          -163.5899         estimate D2E/DX2                !
 ! D52   D(16,5,6,17)           61.3883         estimate D2E/DX2                !
 ! D53   D(18,5,6,7)            84.6337         estimate D2E/DX2                !
 ! D54   D(18,5,6,17)          -50.3881         estimate D2E/DX2                !
 ! D55   D(4,5,18,23)           46.8875         estimate D2E/DX2                !
 ! D56   D(6,5,18,23)          -80.829          estimate D2E/DX2                !
 ! D57   D(16,5,18,23)         165.5645         estimate D2E/DX2                !
 ! D58   D(5,6,7,2)             64.2034         estimate D2E/DX2                !
 ! D59   D(17,6,7,2)          -159.5277         estimate D2E/DX2                !
 ! D60   D(4,8,27,28)          -58.3871         estimate D2E/DX2                !
 ! D61   D(4,8,27,29)           63.6973         estimate D2E/DX2                !
 ! D62   D(4,8,27,30)         -177.3377         estimate D2E/DX2                !
 ! D63   D(3,9,31,32)           -0.6578         estimate D2E/DX2                !
 ! D64   D(3,9,31,33)          178.7544         estimate D2E/DX2                !
 ! D65   D(1,10,19,20)         176.6534         estimate D2E/DX2                !
 ! D66   D(1,10,19,21)         -62.0868         estimate D2E/DX2                !
 ! D67   D(1,10,19,22)          59.3279         estimate D2E/DX2                !
 ! D68   D(5,18,23,24)         -62.3706         estimate D2E/DX2                !
 ! D69   D(5,18,23,25)          62.1619         estimate D2E/DX2                !
 ! D70   D(5,18,23,26)        -179.747          estimate D2E/DX2                !
 ! D71   D(9,31,33,34)          49.3847         estimate D2E/DX2                !
 ! D72   D(9,31,33,35)         -68.8336         estimate D2E/DX2                !
 ! D73   D(9,31,33,36)         171.3729         estimate D2E/DX2                !
 ! D74   D(32,31,33,34)       -131.2457         estimate D2E/DX2                !
 ! D75   D(32,31,33,35)        110.536          estimate D2E/DX2                !
 ! D76   D(32,31,33,36)         -9.2575         estimate D2E/DX2                !
 --------------------------------------------------------------------------------
 Trust Radius=3.00D-01 FncErr=1.00D-07 GrdErr=1.00D-06
 Number of steps in this run=    216 maximum allowed number of steps=    216.
 GradGradGradGradGradGradGradGradGradGradGradGradGradGradGradGradGradGrad

 Leave Link  103 at Tue Oct 24 12:49:09 2017, MaxMem=  8053063680 cpu:         0.1
 (Enter /share/apps//g09/l202.exe)
                          Input orientation:                          
 ---------------------------------------------------------------------
 Center     Atomic      Atomic             Coordinates (Angstroms)
 Number     Number       Type             X           Y           Z
 ---------------------------------------------------------------------
      1          6           0       -0.037060   -0.486830    4.502330
      2          6           0        1.151350   -1.038680    3.693560
      3          6           0        1.998960   -0.004130    2.947240
      4          6           0        1.154370    0.898910    2.016080
      5          6           0        0.041740    0.071490    1.297840
      6          6           0       -0.446500   -1.111610    2.133440
      7          8           0        0.474530   -1.900230    2.730160
      8          8           0        0.564480    1.920930    2.807870
      9          8           0        2.689500    0.722870    3.969460
     10          8           0       -1.131630   -0.376200    3.497780
     11          1           0        0.133070    0.521880    4.892450
     12          1           0       -0.356780   -1.191490    5.278200
     13          1           0        1.788650   -1.682010    4.311700
     14          1           0        2.729700   -0.550420    2.330890
     15          1           0        1.813200    1.337620    1.248730
     16          1           0       -0.815040    0.746480    1.150540
     17          1           0       -1.242990   -1.704020    1.664800
     18          8           0        0.325750   -0.439390    0.005000
     19          6           0       -2.421190   -0.944570    3.924950
     20          1           0       -3.127560   -0.734330    3.116430
     21          1           0       -2.317870   -2.021740    4.107920
     22          1           0       -2.720660   -0.409100    4.831580
     23          6           0        1.584220   -1.110150   -0.215770
     24          1           0        2.439040   -0.436120   -0.053360
     25          1           0        1.691060   -2.015570    0.400850
     26          1           0        1.564250   -1.400410   -1.271210
     27          6           0        0.345580    3.143640    2.088580
     28          1           0        1.294280    3.529940    1.682310
     29          1           0       -0.376360    3.017940    1.263520
     30          1           0       -0.062560    3.857530    2.812020
     31          6           0        3.805720    1.426270    3.524560
     32          8           0        4.154500    1.401630    2.364740
     33          6           0        4.442200    2.176440    4.653220
     34          1           0        4.593110    1.521820    5.520540
     35          1           0        3.776480    2.992300    4.968270
     36          1           0        5.395960    2.593490    4.319020
 ---------------------------------------------------------------------
                    Distance matrix (angstroms):
                    1          2          3          4          5
     1  C    0.000000
     2  C    1.539794   0.000000
     3  C    2.607045   1.531578   0.000000
     4  C    3.085647   2.562851   1.547861   0.000000
     5  C    3.253719   2.864120   2.560654   1.561550   0.000000
     6  C    2.483874   2.234372   2.805184   2.572693   1.528506
     7  O    2.323792   1.458936   2.442582   2.967706   2.475182
     8  O    3.005055   3.144544   2.404790   1.421065   2.444151
     9  O    3.030091   2.354800   1.431890   2.490644   3.817392
    10  O    1.489780   2.385206   3.200332   3.007846   2.533172
    11  H    1.094821   2.215757   2.746284   3.075502   3.623867
    12  H    1.095783   2.192918   3.520328   4.158699   4.194902
    13  H    2.190436   1.096413   2.172847   3.511884   3.899975
    14  H    3.517692   2.141601   1.101045   2.163638   2.946030
    15  H    4.163892   3.473045   2.172495   1.102429   2.177973
    16  H    3.655243   3.677015   3.422009   2.156611   1.100627
    17  H    3.314724   3.208023   3.878726   3.556118   2.222077
    18  O    4.512190   3.827040   3.412603   2.553840   1.418836
    19  C    2.495390   3.581262   4.623643   4.452733   3.741672
    20  H    3.396051   4.328369   5.181025   4.713085   3.741801
    21  H    2.777337   3.629544   4.904381   4.996243   4.224443
    22  H    2.704839   4.084596   5.097995   4.965258   4.511002
    23  C    5.027678   3.933872   3.376377   3.033521   2.463033
    24  H    5.185360   4.007572   3.063313   2.777636   2.798295
    25  H    4.705909   3.476714   3.259570   3.375085   2.807253
    26  H    6.060741   4.995025   4.464739   4.032512   3.329346
    27  C    4.376404   4.551596   3.657789   2.387092   3.186800
    28  H    5.085216   4.993781   3.819198   2.655804   3.698317
    29  H    4.784185   4.969422   4.196423   2.720252   2.976164
    30  H    4.661680   5.120895   4.379562   3.296645   4.078936
    31  C    4.402606   3.626323   2.375652   3.095687   4.578346
    32  O    5.069985   4.091428   2.638526   3.061874   4.452229
    33  C    5.213401   4.699749   3.692516   4.404136   5.920594
    34  H    5.148777   4.662588   3.959799   4.949160   6.375706
    35  H    5.183101   4.976444   4.027745   4.469135   5.995954
    36  H    6.248174   5.621439   4.490993   5.115293   6.644974
                    6          7          8          9         10
     6  C    0.000000
     7  O    1.351404   0.000000
     8  O    3.266992   3.823008   0.000000
     9  O    4.070723   3.650015   2.701916   0.000000
    10  O    1.694596   2.343429   2.937613   4.003932   0.000000
    11  H    3.258271   3.264768   2.547338   2.725370   2.085933
    12  H    3.147054   2.772345   4.079021   3.828498   2.105941
    13  H    3.172707   2.067801   4.091610   2.590773   3.300855
    14  H    3.231434   2.658420   3.320129   2.075523   4.037555
    15  H    3.447852   3.803991   2.080978   2.923729   4.082576
    16  H    2.134107   3.341147   2.455433   4.497629   2.621102
    17  H    1.097711   2.030607   4.208779   5.163887   2.266125
    18  O    2.361886   3.095591   3.672082   4.759738   3.785163
    19  C    2.671481   3.275058   4.286395   5.376011   1.472577
    20  H    2.880398   3.805730   4.558155   6.057168   2.063352
    21  H    2.868612   3.116165   5.053980   5.711901   2.118310
    22  H    3.597955   4.104714   4.507392   5.594143   2.074879
    23  C    3.105256   3.245634   4.401104   4.700825   4.658860
    24  H    3.683032   3.708221   4.154070   4.193932   5.036256
    25  H    2.896235   2.630387   4.749627   4.607702   4.499565
    26  H    3.964614   4.177113   5.354412   5.765338   5.573154
    27  C    4.328574   5.086146   1.435380   3.858989   4.069062
    28  H    4.977732   5.590771   2.094852   3.880378   4.943572
    29  H    4.220766   5.202254   2.115095   4.689238   4.133103
    30  H    5.029934   5.783335   2.035587   4.328925   4.420141
    31  C    5.143678   4.774254   3.356184   1.392356   5.256143
    32  O    5.247769   4.957619   3.654351   2.276415   5.691013
    33  C    6.407804   6.004982   4.302013   2.377467   6.238477
    34  H    6.618540   6.038158   4.873164   2.582228   6.361343
    35  H    6.535434   6.312595   4.016479   2.707297   6.131776
    36  H    7.255265   6.851166   5.106771   3.308525   7.218236
                   11         12         13         14         15
    11  H    0.000000
    12  H    1.823292   0.000000
    13  H    2.816975   2.403664   0.000000
    14  H    3.801829   4.315549   2.467728   0.000000
    15  H    4.094504   5.228942   4.301227   2.361300   0.000000
    16  H    3.866684   4.582937   4.761271   3.954789   2.695688
    17  H    4.155225   3.755624   4.024600   4.190076   4.331857
    18  O    4.984810   5.370115   4.715066   3.346800   2.630045
    19  C    3.100125   2.480735   4.291404   5.406297   5.504598
    20  H    3.919696   3.543934   5.147416   5.912562   5.673834
    21  H    3.618369   2.429968   4.125585   5.549827   6.043675
    22  H    3.002366   2.529730   4.714282   5.998320   6.036864
    23  C    5.555472   5.827332   4.568019   2.847964   2.861603
    24  H    5.540424   6.067349   4.585739   2.404620   2.287634
    25  H    5.388920   5.353625   3.926262   2.636379   3.460882
    26  H    6.613182   6.828527   5.594510   3.880191   3.729461
    27  C    3.844538   5.427738   5.505598   4.403274   2.474058
    28  H    4.549927   6.160221   5.858542   4.373834   2.294240
    29  H    4.433843   5.816987   6.005681   4.849751   2.760048
    30  H    3.936118   5.626830   6.030134   5.240060   3.508888
    31  C    4.022114   5.220568   3.788082   2.547542   3.026119
    32  O    4.830650   5.963570   4.347038   2.416961   2.594467
    33  C    4.622056   5.896080   4.695274   3.970093   4.382444
    34  H    4.613712   5.649973   4.426151   4.235604   5.100019
    35  H    4.402631   5.889312   5.121692   4.538985   4.519669
    36  H    5.684928   6.952706   5.593982   4.576655   4.882628
                   16         17         18         19         20
    16  H    0.000000
    17  H    2.540188   0.000000
    18  O    2.004982   2.610588   0.000000
    19  C    3.624461   2.659548   4.813200   0.000000
    20  H    3.377169   2.568878   4.657611   1.094013   0.000000
    21  H    4.320606   2.687964   5.130937   1.097474   1.815510
    22  H    4.303116   3.726771   5.707662   1.094709   1.792507
    23  C    3.327210   3.447077   1.443054   5.763357   5.783223
    24  H    3.665645   4.256406   2.114098   6.301373   6.412763
    25  H    3.804141   3.209873   2.122525   5.520591   5.677592
    26  H    4.016843   4.073442   2.021424   6.564419   6.458183
    27  C    2.823709   5.118882   4.144853   5.266947   5.306395
    28  H    3.532656   5.816561   4.416673   6.233409   6.308198
    29  H    2.316190   4.817570   3.745659   5.192882   5.008184
    30  H    3.606296   5.800032   5.147200   5.464605   5.529201
    31  C    5.239228   6.224700   5.289441   6.674998   7.273592
    32  O    5.157502   6.266409   4.859738   7.153923   7.625992
    33  C    6.477046   7.504000   6.737483   7.574774   8.254427
    34  H    6.996152   7.702781   7.244162   7.604564   8.395159
    35  H    6.379720   7.626494   6.951121   7.416102   8.061194
    36  H    7.212991   8.342010   7.315474   8.589586   9.228814
                   21         22         23         24         25
    21  H    0.000000
    22  H    1.812879   0.000000
    23  C    5.895049   6.670772   0.000000
    24  H    6.516029   7.105341   1.100641   0.000000
    25  H    5.460213   6.455648   1.100645   1.805670   0.000000
    26  H    6.662728   7.522446   1.094807   1.782771   1.786138
    27  C    6.152467   5.435792   4.993895   4.667458   5.592513
    28  H    7.053535   6.446214   5.021674   4.478019   5.705458
    29  H    6.103970   5.474614   4.803467   4.646631   5.509505
    30  H    6.428965   5.417402   6.046258   5.736186   6.586519
    31  C    7.051768   6.904384   5.035728   4.258852   5.106429
    32  O    7.526600   7.525415   4.424298   3.488171   4.647866
    33  C    7.976253   7.617309   6.532747   5.743694   6.574524
    34  H    7.893919   7.595680   6.991848   6.288236   6.866313
    35  H    7.938633   7.334919   6.964939   6.225719   7.091478
    36  H    8.991556   8.669359   6.986461   6.086018   7.093784
                   26         27         28         29         30
    26  H    0.000000
    27  C    5.781154   0.000000
    28  H    5.753652   1.101959   0.000000
    29  H    5.450930   1.103504   1.796821   0.000000
    30  H    6.853117   1.095255   1.795710   1.789199   0.000000
    31  C    6.001143   4.121161   3.758543   5.013533   4.624103
    32  O    5.270764   4.197468   3.629914   4.934961   4.900520
    33  C    7.495020   4.929011   4.535159   5.951194   5.148684
    34  H    7.990074   5.696504   5.444891   6.712393   5.870850
    35  H    7.944871   4.481807   4.153060   5.565241   4.487345
    36  H    7.866633   5.548321   4.965174   6.544915   5.802093
                   31         32         33         34         35
    31  C    0.000000
    32  O    1.211378   0.000000
    33  C    1.497243   2.433155   0.000000
    34  H    2.147801   3.188401   1.097062   0.000000
    35  H    2.130165   3.074329   1.099121   1.770367   0.000000
    36  H    2.126601   2.604028   1.093288   1.799082   1.789774
                   36
    36  H    0.000000
 Stoichiometry    C11H19O6(1+)
 Framework group  C1[X(C11H19O6)]
 Deg. of freedom   102
 Full point group                 C1      NOp   1
 Largest Abelian subgroup         C1      NOp   1
 Largest concise Abelian subgroup C1      NOp   1
                         Standard orientation:                         
 ---------------------------------------------------------------------
 Center     Atomic      Atomic             Coordinates (Angstroms)
 Number     Number       Type             X           Y           Z
 ---------------------------------------------------------------------
      1          6           0       -1.003169   -1.951614   -0.498239
      2          6           0       -0.411386   -0.827101   -1.367853
      3          6           0        0.691678    0.016655   -0.722054
      4          6           0        0.259696    0.626266    0.633541
      5          6           0       -1.223705    1.110935    0.578256
      6          6           0       -2.079793    0.283702   -0.380456
      7          8           0       -1.584950    0.006007   -1.606959
      8          8           0        0.407202   -0.372117    1.633990
      9          8           0        1.820295   -0.858277   -0.617046
     10          8           0       -2.054814   -1.266262    0.304119
     11          1           0       -0.287765   -2.371235    0.216429
     12          1           0       -1.488539   -2.719838   -1.110602
     13          1           0       -0.081379   -1.208864   -2.341236
     14          1           0        0.931535    0.840554   -1.411952
     15          1           0        0.902151    1.493832    0.856991
     16          1           0       -1.641259    0.980979    1.588276
     17          1           0       -3.133718    0.586765   -0.429078
     18          8           0       -1.464926    2.472393    0.259916
     19          6           0       -3.357428   -1.952598    0.329066
     20          1           0       -3.995255   -1.367609    0.998265
     21          1           0       -3.773593   -2.011377   -0.684739
     22          1           0       -3.185234   -2.947561    0.751898
     23          6           0       -0.769100    3.057512   -0.860738
     24          1           0        0.320957    3.057422   -0.708470
     25          1           0       -1.020275    2.566763   -1.813365
     26          1           0       -1.116751    4.095121   -0.894070
     27          6           0        0.703042    0.162550    2.932806
     28          1           0        1.629264    0.758921    2.905100
     29          1           0       -0.118146    0.788228    3.322550
     30          1           0        0.839448   -0.698155    3.596253
     31          6           0        3.039799   -0.209743   -0.441350
     32          8           0        3.119083    0.998199   -0.396333
     33          6           0        4.152823   -1.202833   -0.312173
     34          1           0        4.108142   -1.945702   -1.118208
     35          1           0        4.049205   -1.742859    0.639511
     36          1           0        5.111364   -0.677320   -0.329888
 ---------------------------------------------------------------------
 Rotational constants (GHZ):      0.6420530      0.3769864      0.3341531
 Leave Link  202 at Tue Oct 24 12:49:10 2017, MaxMem=  8053063680 cpu:         0.3
 (Enter /share/apps//g09/l301.exe)
 Standard basis: 6-311+G(d,p) (5D, 7F)
 Ernie: Thresh=  0.10000D-02 Tol=  0.10000D-05 Strict=F.
 There are   505 symmetry adapted cartesian basis functions of A   symmetry.
 There are   488 symmetry adapted basis functions of A   symmetry.
   488 basis functions,   764 primitive gaussians,   505 cartesian basis functions
    66 alpha electrons       66 beta electrons
       nuclear repulsion energy      1446.3676945206 Hartrees.
 IExCor= 1009 DFT=T Ex+Corr=PBE1PBE ExCW=0 ScaHFX=  0.250000
 ScaDFX=  0.750000  0.750000  1.000000  1.000000 ScalE2=  1.000000  1.000000
 IRadAn=      0 IRanWt=     -1 IRanGd=            0 ICorTp=0 IEmpDi=131
 NAtoms=   36 NActive=   36 NUniq=   36 SFac= 1.00D+00 NAtFMM=   60 NAOKFM=F Big=F
 Integral buffers will be    131072 words long.
 Raffenetti 2 integral format.
 Two-electron integral symmetry is turned on.
 R6Disp:  Grimme-D3 Dispersion energy=       -0.0264685103 Hartrees.
 Nuclear repulsion after empirical dispersion term =     1446.3412260104 Hartrees.
 Leave Link  301 at Tue Oct 24 12:49:10 2017, MaxMem=  8053063680 cpu:         0.6
 (Enter /share/apps//g09/l302.exe)
 NPDir=0 NMtPBC=     1 NCelOv=     1 NCel=       1 NClECP=     1 NCelD=      1
         NCelK=      1 NCelE2=     1 NClLst=     1 CellRange=     0.0.
 One-electron integrals computed using PRISM.
 NBasis=   488 RedAO= T EigKep=  2.02D-06  NBF=   488
 NBsUse=   488 1.00D-06 EigRej= -1.00D+00 NBFU=   488
 Precomputing XC quadrature grid using
 IXCGrd= 4 IRadAn=           0 IRanWt=          -1 IRanGd=           0 AccXCQ= 0.00D+00.
 Generated NRdTot=       0 NPtTot=           0 NUsed=           0 NTot=          32
 NSgBfM=   504   504   505   505   505 MxSgAt=    36 MxSgA2=    36.
 Leave Link  302 at Tue Oct 24 12:49:10 2017, MaxMem=  8053063680 cpu:         4.2
 (Enter /share/apps//g09/l303.exe)
 DipDrv:  MaxL=1.
 Leave Link  303 at Tue Oct 24 12:49:10 2017, MaxMem=  8053063680 cpu:         1.0
 (Enter /share/apps//g09/l401.exe)
 ExpMin= 4.38D-02 ExpMax= 8.59D+03 ExpMxC= 1.30D+03 IAcc=2 IRadAn=         4 AccDes= 0.00D+00
 Harris functional with IExCor= 1009 and IRadAn=       4 diagonalized for initial guess.
 HarFok:  IExCor= 1009 AccDes= 0.00D+00 IRadAn=         4 IDoV= 1 UseB2=F ITyADJ=14
 ICtDFT=  3500011 ScaDFX=  1.000000  1.000000  1.000000  1.000000
 FoFCou: FMM=F IPFlag=           0 FMFlag=      100000 FMFlg1=           0
         NFxFlg=           0 DoJE=T BraDBF=F KetDBF=T FulRan=T
         wScrn=  0.000000 ICntrl=     500 IOpCl=  0 I1Cent=   200000004 NGrid=           0
         NMat0=    1 NMatS0=      1 NMatT0=    0 NMatD0=    1 NMtDS0=    0 NMtDT0=    0
 Petite list used in FoFCou.
 Harris En= -881.095607223942    
 JPrj=0 DoOrth=F DoCkMO=F.
 Leave Link  401 at Tue Oct 24 12:49:12 2017, MaxMem=  8053063680 cpu:        13.8
 (Enter /share/apps//g09/l502.exe)
 Closed shell SCF:
 Using DIIS extrapolation, IDIIS=  1040.
 Integral symmetry usage will be decided dynamically.
 Keep R1 ints in memory in canonical form, NReq=7183782884.
 IVT=      792443 IEndB=      792443 NGot=  8053063680 MDV=   934057652
 LenX=   934057652 LenY=   933802122
 Requested convergence on RMS density matrix=1.00D-08 within 128 cycles.
 Requested convergence on MAX density matrix=1.00D-06.
 Requested convergence on             energy=1.00D-06.
 No special actions if energy rises.
 FoFCou: FMM=F IPFlag=           0 FMFlag=           0 FMFlg1=           0
         NFxFlg=           0 DoJE=F BraDBF=F KetDBF=F FulRan=T
         wScrn=  0.000000 ICntrl=     600 IOpCl=  0 I1Cent=           0 NGrid=           0
         NMat0=    1 NMatS0= 119316 NMatT0=    0 NMatD0=    1 NMtDS0=    0 NMtDT0=    0
 Symmetry not used in FoFCou.

 Cycle   1  Pass 1  IDiag  1:
 E= -880.619282154508    
 DIIS: error= 1.50D-02 at cycle   1 NSaved=   1.
 NSaved= 1 IEnMin= 1 EnMin= -880.619282154508     IErMin= 1 ErrMin= 1.50D-02
 ErrMax= 1.50D-02  0.00D+00 EMaxC= 1.00D-01 BMatC= 3.99D-01 BMatP= 3.99D-01
 IDIUse=3 WtCom= 8.50D-01 WtEn= 1.50D-01
 Coeff-Com:  0.100D+01
 Coeff-En:   0.100D+01
 Coeff:      0.100D+01
 Gap=     0.272 Goal=   None    Shift=    0.000
 GapD=    0.272 DampG=1.000 DampE=0.500 DampFc=0.5000 IDamp=-1.
 Damping current iteration by 5.00D-01
 RMSDP=9.57D-03 MaxDP=1.28D+00              OVMax= 2.46D-01

 Cycle   2  Pass 1  IDiag  1:
 E= -880.724272883772     Delta-E=       -0.104990729264 Rises=F Damp=T
 DIIS: error= 7.26D-03 at cycle   2 NSaved=   2.
 NSaved= 2 IEnMin= 2 EnMin= -880.724272883772     IErMin= 2 ErrMin= 7.26D-03
 ErrMax= 7.26D-03  0.00D+00 EMaxC= 1.00D-01 BMatC= 5.32D-02 BMatP= 3.99D-01
 IDIUse=3 WtCom= 9.27D-01 WtEn= 7.26D-02
 Coeff-Com:  0.114D+00 0.886D+00
 Coeff-En:   0.229D+00 0.771D+00
 Coeff:      0.122D+00 0.878D+00
 Gap=     0.284 Goal=   None    Shift=    0.000
 RMSDP=6.14D-03 MaxDP=1.26D+00 DE=-1.05D-01 OVMax= 1.35D-01

 Cycle   3  Pass 1  IDiag  1:
 E= -880.864661142434     Delta-E=       -0.140388258662 Rises=F Damp=F
 DIIS: error= 1.11D-02 at cycle   3 NSaved=   3.
 NSaved= 3 IEnMin= 3 EnMin= -880.864661142434     IErMin= 2 ErrMin= 7.26D-03
 ErrMax= 1.11D-02  0.00D+00 EMaxC= 1.00D-01 BMatC= 6.04D-02 BMatP= 5.32D-02
 IDIUse=2 WtCom= 0.00D+00 WtEn= 1.00D+00
 Coeff-En:   0.000D+00 0.000D+00 0.100D+01
 Coeff:      0.000D+00 0.000D+00 0.100D+01
 Gap=     0.219 Goal=   None    Shift=    0.000
 RMSDP=4.48D-03 MaxDP=5.94D-01 DE=-1.40D-01 OVMax= 2.36D-01

 Cycle   4  Pass 1  IDiag  1:
 E= -880.689141759946     Delta-E=        0.175519382487 Rises=F Damp=F
 DIIS: error= 2.51D-02 at cycle   4 NSaved=   4.
 NSaved= 4 IEnMin= 3 EnMin= -880.864661142434     IErMin= 2 ErrMin= 7.26D-03
 ErrMax= 2.51D-02  0.00D+00 EMaxC= 1.00D-01 BMatC= 2.98D-01 BMatP= 5.32D-02
 IDIUse=2 WtCom= 0.00D+00 WtEn= 1.00D+00
 Coeff-En:   0.000D+00 0.000D+00 0.779D+00 0.221D+00
 Coeff:      0.000D+00 0.000D+00 0.779D+00 0.221D+00
 Gap=     0.224 Goal=   None    Shift=    0.000
 RMSDP=2.73D-03 MaxDP=4.39D-01 DE= 1.76D-01 OVMax= 1.01D-01

 Cycle   5  Pass 1  IDiag  1:
 E= -880.895078842417     Delta-E=       -0.205937082471 Rises=F Damp=F
 DIIS: error= 6.04D-03 at cycle   5 NSaved=   5.
 NSaved= 5 IEnMin= 5 EnMin= -880.895078842417     IErMin= 5 ErrMin= 6.04D-03
 ErrMax= 6.04D-03  0.00D+00 EMaxC= 1.00D-01 BMatC= 2.01D-02 BMatP= 5.32D-02
 IDIUse=3 WtCom= 9.40D-01 WtEn= 6.04D-02
 Coeff-Com:  0.538D-02 0.674D-02 0.345D+00-0.162D-01 0.660D+00
 Coeff-En:   0.000D+00 0.000D+00 0.293D+00 0.000D+00 0.707D+00
 Coeff:      0.505D-02 0.633D-02 0.341D+00-0.152D-01 0.662D+00
 Gap=     0.241 Goal=   None    Shift=    0.000
 RMSDP=1.01D-03 MaxDP=1.68D-01 DE=-2.06D-01 OVMax= 2.59D-02

 Cycle   6  Pass 1  IDiag  1:
 E= -880.909660541877     Delta-E=       -0.014581699460 Rises=F Damp=F
 DIIS: error= 5.10D-04 at cycle   6 NSaved=   6.
 NSaved= 6 IEnMin= 6 EnMin= -880.909660541877     IErMin= 6 ErrMin= 5.10D-04
 ErrMax= 5.10D-04  0.00D+00 EMaxC= 1.00D-01 BMatC= 2.48D-04 BMatP= 2.01D-02
 IDIUse=3 WtCom= 9.95D-01 WtEn= 5.10D-03
 Coeff-Com: -0.270D-03 0.325D-02 0.139D+00-0.468D-01 0.425D+00 0.480D+00
 Coeff-En:   0.000D+00 0.000D+00 0.000D+00 0.000D+00 0.000D+00 0.100D+01
 Coeff:     -0.269D-03 0.324D-02 0.138D+00-0.466D-01 0.423D+00 0.483D+00
 Gap=     0.235 Goal=   None    Shift=    0.000
 RMSDP=1.21D-04 MaxDP=1.16D-02 DE=-1.46D-02 OVMax= 2.25D-03

 Cycle   7  Pass 1  IDiag  1:
 E= -880.909829194497     Delta-E=       -0.000168652620 Rises=F Damp=F
 DIIS: error= 1.12D-04 at cycle   7 NSaved=   7.
 NSaved= 7 IEnMin= 7 EnMin= -880.909829194497     IErMin= 7 ErrMin= 1.12D-04
 ErrMax= 1.12D-04  0.00D+00 EMaxC= 1.00D-01 BMatC= 1.14D-05 BMatP= 2.48D-04
 IDIUse=3 WtCom= 9.99D-01 WtEn= 1.12D-03
 Coeff-Com: -0.556D-03 0.128D-02 0.572D-01-0.272D-01 0.202D+00 0.256D+00
 Coeff-Com:  0.511D+00
 Coeff-En:   0.000D+00 0.000D+00 0.000D+00 0.000D+00 0.000D+00 0.000D+00
 Coeff-En:   0.100D+01
 Coeff:     -0.555D-03 0.128D-02 0.571D-01-0.271D-01 0.201D+00 0.256D+00
 Coeff:      0.512D+00
 Gap=     0.234 Goal=   None    Shift=    0.000
 RMSDP=4.06D-05 MaxDP=8.31D-03 DE=-1.69D-04 OVMax= 4.32D-04

 Cycle   8  Pass 1  IDiag  1:
 E= -880.909836746316     Delta-E=       -0.000007551819 Rises=F Damp=F
 DIIS: error= 3.71D-05 at cycle   8 NSaved=   8.
 NSaved= 8 IEnMin= 8 EnMin= -880.909836746316     IErMin= 8 ErrMin= 3.71D-05
 ErrMax= 3.71D-05  0.00D+00 EMaxC= 1.00D-01 BMatC= 1.07D-06 BMatP= 1.14D-05
 IDIUse=1 WtCom= 1.00D+00 WtEn= 0.00D+00
 Coeff-Com:  0.580D-04-0.271D-03 0.709D-02-0.483D-02 0.273D-01 0.335D-01
 Coeff-Com:  0.240D+00 0.697D+00
 Coeff:      0.580D-04-0.271D-03 0.709D-02-0.483D-02 0.273D-01 0.335D-01
 Coeff:      0.240D+00 0.697D+00
 Gap=     0.234 Goal=   None    Shift=    0.000
 RMSDP=1.63D-05 MaxDP=3.25D-03 DE=-7.55D-06 OVMax= 1.69D-04

 Cycle   9  Pass 1  IDiag  1:
 E= -880.909837528578     Delta-E=       -0.000000782262 Rises=F Damp=F
 DIIS: error= 7.88D-06 at cycle   9 NSaved=   9.
 NSaved= 9 IEnMin= 9 EnMin= -880.909837528578     IErMin= 9 ErrMin= 7.88D-06
 ErrMax= 7.88D-06  0.00D+00 EMaxC= 1.00D-01 BMatC= 7.23D-08 BMatP= 1.07D-06
 IDIUse=1 WtCom= 1.00D+00 WtEn= 0.00D+00
 Coeff-Com:  0.752D-04-0.282D-03 0.818D-03-0.993D-03 0.354D-02 0.250D-02
 Coeff-Com:  0.935D-01 0.357D+00 0.544D+00
 Coeff:      0.752D-04-0.282D-03 0.818D-03-0.993D-03 0.354D-02 0.250D-02
 Coeff:      0.935D-01 0.357D+00 0.544D+00
 Gap=     0.234 Goal=   None    Shift=    0.000
 RMSDP=3.49D-06 MaxDP=4.59D-04 DE=-7.82D-07 OVMax= 3.93D-05

 Cycle  10  Pass 1  IDiag  1:
 E= -880.909837583828     Delta-E=       -0.000000055250 Rises=F Damp=F
 DIIS: error= 2.20D-06 at cycle  10 NSaved=  10.
 NSaved=10 IEnMin=10 EnMin= -880.909837583828     IErMin=10 ErrMin= 2.20D-06
 ErrMax= 2.20D-06  0.00D+00 EMaxC= 1.00D-01 BMatC= 5.18D-09 BMatP= 7.23D-08
 IDIUse=1 WtCom= 1.00D+00 WtEn= 0.00D+00
 Coeff-Com:  0.935D-05-0.467D-04-0.477D-03 0.488D-04-0.128D-02-0.263D-02
 Coeff-Com:  0.949D-02 0.632D-01 0.232D+00 0.700D+00
 Coeff:      0.935D-05-0.467D-04-0.477D-03 0.488D-04-0.128D-02-0.263D-02
 Coeff:      0.949D-02 0.632D-01 0.232D+00 0.700D+00
 Gap=     0.234 Goal=   None    Shift=    0.000
 RMSDP=7.64D-07 MaxDP=7.53D-05 DE=-5.52D-08 OVMax= 1.77D-05

 Cycle  11  Pass 1  IDiag  1:
 E= -880.909837587658     Delta-E=       -0.000000003830 Rises=F Damp=F
 DIIS: error= 8.08D-07 at cycle  11 NSaved=  11.
 NSaved=11 IEnMin=11 EnMin= -880.909837587658     IErMin=11 ErrMin= 8.08D-07
 ErrMax= 8.08D-07  0.00D+00 EMaxC= 1.00D-01 BMatC= 7.61D-10 BMatP= 5.18D-09
 IDIUse=1 WtCom= 1.00D+00 WtEn= 0.00D+00
 Coeff-Com: -0.242D-05 0.648D-06-0.388D-03 0.134D-03-0.116D-02-0.187D-02
 Coeff-Com: -0.349D-02 0.264D-02 0.751D-01 0.357D+00 0.572D+00
 Coeff:     -0.242D-05 0.648D-06-0.388D-03 0.134D-03-0.116D-02-0.187D-02
 Coeff:     -0.349D-02 0.264D-02 0.751D-01 0.357D+00 0.572D+00
 Gap=     0.234 Goal=   None    Shift=    0.000
 RMSDP=3.58D-07 MaxDP=7.02D-05 DE=-3.83D-09 OVMax= 5.04D-06

 Cycle  12  Pass 1  IDiag  1:
 E= -880.909837588266     Delta-E=       -0.000000000608 Rises=F Damp=F
 DIIS: error= 2.38D-07 at cycle  12 NSaved=  12.
 NSaved=12 IEnMin=12 EnMin= -880.909837588266     IErMin=12 ErrMin= 2.38D-07
 ErrMax= 2.38D-07  0.00D+00 EMaxC= 1.00D-01 BMatC= 6.35D-11 BMatP= 7.61D-10
 IDIUse=1 WtCom= 1.00D+00 WtEn= 0.00D+00
 Coeff-Com: -0.423D-05 0.102D-04-0.115D-03 0.450D-04-0.325D-03-0.476D-03
 Coeff-Com: -0.251D-02-0.594D-02 0.604D-02 0.724D-01 0.253D+00 0.678D+00
 Coeff:     -0.423D-05 0.102D-04-0.115D-03 0.450D-04-0.325D-03-0.476D-03
 Coeff:     -0.251D-02-0.594D-02 0.604D-02 0.724D-01 0.253D+00 0.678D+00
 Gap=     0.234 Goal=   None    Shift=    0.000
 RMSDP=1.27D-07 MaxDP=1.50D-05 DE=-6.08D-10 OVMax= 2.14D-06

 Cycle  13  Pass 1  IDiag  1:
 E= -880.909837588297     Delta-E=       -0.000000000030 Rises=F Damp=F
 DIIS: error= 7.48D-08 at cycle  13 NSaved=  13.
 NSaved=13 IEnMin=13 EnMin= -880.909837588297     IErMin=13 ErrMin= 7.48D-08
 ErrMax= 7.48D-08  0.00D+00 EMaxC= 1.00D-01 BMatC= 5.22D-12 BMatP= 6.35D-11
 IDIUse=1 WtCom= 1.00D+00 WtEn= 0.00D+00
 Coeff-Com: -0.170D-05 0.432D-05-0.112D-04 0.568D-05-0.232D-04-0.273D-04
 Coeff-Com: -0.692D-03-0.271D-02-0.448D-02-0.305D-02 0.520D-01 0.288D+00
 Coeff-Com:  0.671D+00
 Coeff:     -0.170D-05 0.432D-05-0.112D-04 0.568D-05-0.232D-04-0.273D-04
 Coeff:     -0.692D-03-0.271D-02-0.448D-02-0.305D-02 0.520D-01 0.288D+00
 Coeff:      0.671D+00
 Gap=     0.234 Goal=   None    Shift=    0.000
 RMSDP=4.28D-08 MaxDP=8.57D-06 DE=-3.05D-11 OVMax= 7.38D-07

 Cycle  14  Pass 1  IDiag  1:
 E= -880.909837588305     Delta-E=       -0.000000000008 Rises=F Damp=F
 DIIS: error= 2.79D-08 at cycle  14 NSaved=  14.
 NSaved=14 IEnMin=14 EnMin= -880.909837588305     IErMin=14 ErrMin= 2.79D-08
 ErrMax= 2.79D-08  0.00D+00 EMaxC= 1.00D-01 BMatC= 1.01D-12 BMatP= 5.22D-12
 IDIUse=1 WtCom= 1.00D+00 WtEn= 0.00D+00
 Coeff-Com: -0.280D-06 0.902D-06 0.652D-05-0.146D-05 0.199D-04 0.266D-04
 Coeff-Com: -0.398D-04-0.637D-03-0.278D-02-0.985D-02-0.457D-02 0.666D-01
 Coeff-Com:  0.355D+00 0.596D+00
 Coeff:     -0.280D-06 0.902D-06 0.652D-05-0.146D-05 0.199D-04 0.266D-04
 Coeff:     -0.398D-04-0.637D-03-0.278D-02-0.985D-02-0.457D-02 0.666D-01
 Coeff:      0.355D+00 0.596D+00
 Gap=     0.234 Goal=   None    Shift=    0.000
 RMSDP=7.91D-09 MaxDP=7.00D-07 DE=-8.19D-12 OVMax= 2.15D-07

 SCF Done:  E(RPBE1PBE) =  -880.909837588     A.U. after   14 cycles
            NFock= 14  Conv=0.79D-08     -V/T= 2.0044
 KE= 8.770847214827D+02 PE=-4.935893893521D+03 EE= 1.731558108440D+03
 Leave Link  502 at Tue Oct 24 12:52:53 2017, MaxMem=  8053063680 cpu:       751.6
 (Enter /share/apps//g09/l601.exe)
 Copying SCF densities to generalized density rwf, IOpCl= 0 IROHF=0.

 **********************************************************************

            Population analysis using the SCF density.

 **********************************************************************

 Orbital symmetries:
       Occupied  (A) (A) (A) (A) (A) (A) (A) (A) (A) (A) (A) (A)
                 (A) (A) (A) (A) (A) (A) (A) (A) (A) (A) (A) (A)
                 (A) (A) (A) (A) (A) (A) (A) (A) (A) (A) (A) (A)
                 (A) (A) (A) (A) (A) (A) (A) (A) (A) (A) (A) (A)
                 (A) (A) (A) (A) (A) (A) (A) (A) (A) (A) (A) (A)
                 (A) (A) (A) (A) (A) (A)
       Virtual   (A) (A) (A) (A) (A) (A) (A) (A) (A) (A) (A) (A)
                 (A) (A) (A) (A) (A) (A) (A) (A) (A) (A) (A) (A)
                 (A) (A) (A) (A) (A) (A) (A) (A) (A) (A) (A) (A)
                 (A) (A) (A) (A) (A) (A) (A) (A) (A) (A) (A) (A)
                 (A) (A) (A) (A) (A) (A) (A) (A) (A) (A) (A) (A)
                 (A) (A) (A) (A) (A) (A) (A) (A) (A) (A) (A) (A)
                 (A) (A) (A) (A) (A) (A) (A) (A) (A) (A) (A) (A)
                 (A) (A) (A) (A) (A) (A) (A) (A) (A) (A) (A) (A)
                 (A) (A) (A) (A) (A) (A) (A) (A) (A) (A) (A) (A)
                 (A) (A) (A) (A) (A) (A) (A) (A) (A) (A) (A) (A)
                 (A) (A) (A) (A) (A) (A) (A) (A) (A) (A) (A) (A)
                 (A) (A) (A) (A) (A) (A) (A) (A) (A) (A) (A) (A)
                 (A) (A) (A) (A) (A) (A) (A) (A) (A) (A) (A) (A)
                 (A) (A) (A) (A) (A) (A) (A) (A) (A) (A) (A) (A)
                 (A) (A) (A) (A) (A) (A) (A) (A) (A) (A) (A) (A)
                 (A) (A) (A) (A) (A) (A) (A) (A) (A) (A) (A) (A)
                 (A) (A) (A) (A) (A) (A) (A) (A) (A) (A) (A) (A)
                 (A) (A) (A) (A) (A) (A) (A) (A) (A) (A) (A) (A)
                 (A) (A) (A) (A) (A) (A) (A) (A) (A) (A) (A) (A)
                 (A) (A) (A) (A) (A) (A) (A) (A) (A) (A) (A) (A)
                 (A) (A) (A) (A) (A) (A) (A) (A) (A) (A) (A) (A)
                 (A) (A) (A) (A) (A) (A) (A) (A) (A) (A) (A) (A)
                 (A) (A) (A) (A) (A) (A) (A) (A) (A) (A) (A) (A)
                 (A) (A) (A) (A) (A) (A) (A) (A) (A) (A) (A) (A)
                 (A) (A) (A) (A) (A) (A) (A) (A) (A) (A) (A) (A)
                 (A) (A) (A) (A) (A) (A) (A) (A) (A) (A) (A) (A)
                 (A) (A) (A) (A) (A) (A) (A) (A) (A) (A) (A) (A)
                 (A) (A) (A) (A) (A) (A) (A) (A) (A) (A) (A) (A)
                 (A) (A) (A) (A) (A) (A) (A) (A) (A) (A) (A) (A)
                 (A) (A) (A) (A) (A) (A) (A) (A) (A) (A) (A) (A)
                 (A) (A) (A) (A) (A) (A) (A) (A) (A) (A) (A) (A)
                 (A) (A) (A) (A) (A) (A) (A) (A) (A) (A) (A) (A)
                 (A) (A) (A) (A) (A) (A) (A) (A) (A) (A) (A) (A)
                 (A) (A) (A) (A) (A) (A) (A) (A) (A) (A) (A) (A)
                 (A) (A) (A) (A) (A) (A) (A) (A) (A) (A) (A) (A)
                 (A) (A)
 The electronic state is 1-A.
 Alpha  occ. eigenvalues --  -19.47998 -19.42586 -19.38025 -19.35765 -19.34874
 Alpha  occ. eigenvalues --  -19.31759 -10.52578 -10.47889 -10.46547 -10.46360
 Alpha  occ. eigenvalues --  -10.45544 -10.44223 -10.43921 -10.42944 -10.38780
 Alpha  occ. eigenvalues --  -10.38474 -10.33865  -1.33157  -1.26795  -1.26062
 Alpha  occ. eigenvalues --   -1.21095  -1.19975  -1.17373  -1.00028  -0.97073
 Alpha  occ. eigenvalues --   -0.93657  -0.89421  -0.87508  -0.85326  -0.84032
 Alpha  occ. eigenvalues --   -0.81272  -0.80661  -0.75471  -0.73660  -0.72419
 Alpha  occ. eigenvalues --   -0.69996  -0.68017  -0.67013  -0.66473  -0.65229
 Alpha  occ. eigenvalues --   -0.64842  -0.63269  -0.62328  -0.61970  -0.61190
 Alpha  occ. eigenvalues --   -0.60038  -0.59594  -0.58674  -0.58369  -0.57555
 Alpha  occ. eigenvalues --   -0.55943  -0.55521  -0.55155  -0.53160  -0.52799
 Alpha  occ. eigenvalues --   -0.52526  -0.51940  -0.51390  -0.49653  -0.48934
 Alpha  occ. eigenvalues --   -0.47935  -0.46628  -0.44533  -0.42906  -0.41620
 Alpha  occ. eigenvalues --   -0.40260
 Alpha virt. eigenvalues --   -0.16834  -0.12911  -0.11615  -0.11310  -0.10340
 Alpha virt. eigenvalues --   -0.09112  -0.08973  -0.08200  -0.07403  -0.07063
 Alpha virt. eigenvalues --   -0.06565  -0.06043  -0.05666  -0.04676  -0.04603
 Alpha virt. eigenvalues --   -0.03962  -0.03501  -0.03210  -0.03091  -0.02850
 Alpha virt. eigenvalues --   -0.02280  -0.01620  -0.01459  -0.01328  -0.00934
 Alpha virt. eigenvalues --   -0.00216   0.00218   0.00622   0.01001   0.01361
 Alpha virt. eigenvalues --    0.01973   0.02380   0.02748   0.03074   0.03276
 Alpha virt. eigenvalues --    0.03476   0.03711   0.04055   0.04567   0.04663
 Alpha virt. eigenvalues --    0.05067   0.05543   0.05736   0.06207   0.06656
 Alpha virt. eigenvalues --    0.06911   0.07476   0.07709   0.08256   0.08626
 Alpha virt. eigenvalues --    0.09176   0.09527   0.10088   0.10363   0.10477
 Alpha virt. eigenvalues --    0.10895   0.11263   0.11698   0.11795   0.12147
 Alpha virt. eigenvalues --    0.12735   0.12983   0.13330   0.13692   0.13883
 Alpha virt. eigenvalues --    0.14271   0.14878   0.15200   0.16012   0.16297
 Alpha virt. eigenvalues --    0.16790   0.17113   0.17556   0.18110   0.18549
 Alpha virt. eigenvalues --    0.18653   0.19950   0.20339   0.20478   0.21328
 Alpha virt. eigenvalues --    0.21712   0.21938   0.22897   0.23128   0.23735
 Alpha virt. eigenvalues --    0.24405   0.24588   0.24991   0.25912   0.26196
 Alpha virt. eigenvalues --    0.26521   0.27085   0.27471   0.27557   0.27762
 Alpha virt. eigenvalues --    0.29034   0.29320   0.30093   0.30663   0.30733
 Alpha virt. eigenvalues --    0.32447   0.33454   0.33586   0.34385   0.34651
 Alpha virt. eigenvalues --    0.35847   0.35896   0.36787   0.37457   0.38291
 Alpha virt. eigenvalues --    0.38963   0.39657   0.40893   0.41153   0.42500
 Alpha virt. eigenvalues --    0.42735   0.44235   0.45289   0.46168   0.46726
 Alpha virt. eigenvalues --    0.47407   0.47701   0.48037   0.49131   0.49553
 Alpha virt. eigenvalues --    0.49985   0.51179   0.52063   0.52609   0.52851
 Alpha virt. eigenvalues --    0.53605   0.55233   0.55307   0.55981   0.56442
 Alpha virt. eigenvalues --    0.56934   0.57198   0.58467   0.58547   0.59204
 Alpha virt. eigenvalues --    0.59601   0.60105   0.60242   0.61079   0.61874
 Alpha virt. eigenvalues --    0.62750   0.63496   0.63697   0.64930   0.65279
 Alpha virt. eigenvalues --    0.65663   0.67039   0.68475   0.70134   0.71165
 Alpha virt. eigenvalues --    0.74475   0.75169   0.76600   0.78953   0.79984
 Alpha virt. eigenvalues --    0.83275   0.84119   0.85790   0.87531   0.88049
 Alpha virt. eigenvalues --    0.89250   0.90788   0.93121   0.93452   0.93832
 Alpha virt. eigenvalues --    0.95516   0.97139   0.98498   1.00443   1.02091
 Alpha virt. eigenvalues --    1.03434   1.05054   1.06362   1.07363   1.08563
 Alpha virt. eigenvalues --    1.09577   1.10172   1.12629   1.12725   1.13657
 Alpha virt. eigenvalues --    1.14462   1.16135   1.17113   1.18795   1.20559
 Alpha virt. eigenvalues --    1.21014   1.22489   1.23497   1.23853   1.25059
 Alpha virt. eigenvalues --    1.26077   1.26550   1.27511   1.28743   1.30028
 Alpha virt. eigenvalues --    1.31531   1.33024   1.33850   1.34437   1.35185
 Alpha virt. eigenvalues --    1.36001   1.36484   1.37876   1.39479   1.40265
 Alpha virt. eigenvalues --    1.41072   1.42220   1.43388   1.43559   1.44205
 Alpha virt. eigenvalues --    1.44794   1.46237   1.46596   1.46838   1.47073
 Alpha virt. eigenvalues --    1.47604   1.49179   1.49733   1.49878   1.50581
 Alpha virt. eigenvalues --    1.51762   1.52986   1.53872   1.54089   1.56033
 Alpha virt. eigenvalues --    1.57344   1.57565   1.58106   1.58188   1.60062
 Alpha virt. eigenvalues --    1.60495   1.61314   1.61904   1.63708   1.64804
 Alpha virt. eigenvalues --    1.65416   1.66357   1.67658   1.68130   1.68436
 Alpha virt. eigenvalues --    1.69492   1.71731   1.72446   1.72566   1.74371
 Alpha virt. eigenvalues --    1.76028   1.77166   1.78092   1.78477   1.79362
 Alpha virt. eigenvalues --    1.82135   1.83461   1.84820   1.86559   1.87795
 Alpha virt. eigenvalues --    1.90084   1.91844   1.92344   1.92699   1.94307
 Alpha virt. eigenvalues --    1.96418   1.98734   1.99340   1.99890   2.01723
 Alpha virt. eigenvalues --    2.03269   2.03453   2.05353   2.06558   2.07013
 Alpha virt. eigenvalues --    2.07641   2.10926   2.13253   2.13957   2.14961
 Alpha virt. eigenvalues --    2.15896   2.17326   2.19858   2.20767   2.26708
 Alpha virt. eigenvalues --    2.27003   2.30300   2.33666   2.33918   2.35083
 Alpha virt. eigenvalues --    2.35915   2.36499   2.37673   2.39500   2.40748
 Alpha virt. eigenvalues --    2.41073   2.41992   2.42201   2.42863   2.43768
 Alpha virt. eigenvalues --    2.44571   2.46730   2.47334   2.47797   2.47998
 Alpha virt. eigenvalues --    2.48568   2.49967   2.51889   2.52312   2.54739
 Alpha virt. eigenvalues --    2.56287   2.57800   2.58426   2.60476   2.62830
 Alpha virt. eigenvalues --    2.64080   2.64985   2.68861   2.70206   2.72003
 Alpha virt. eigenvalues --    2.72562   2.74139   2.75901   2.76667   2.77647
 Alpha virt. eigenvalues --    2.79175   2.80521   2.80856   2.82536   2.83153
 Alpha virt. eigenvalues --    2.86269   2.86528   2.89339   2.90644   2.90869
 Alpha virt. eigenvalues --    2.93955   2.95212   2.96287   2.97436   2.99953
 Alpha virt. eigenvalues --    3.01238   3.02422   3.02892   3.04981   3.06739
 Alpha virt. eigenvalues --    3.07665   3.08366   3.09566   3.10811   3.12757
 Alpha virt. eigenvalues --    3.14761   3.14957   3.16397   3.18817   3.22264
 Alpha virt. eigenvalues --    3.25913   3.27987   3.31128   3.38033   3.47760
 Alpha virt. eigenvalues --    3.54908   3.56991   3.61441   3.65834   3.67002
 Alpha virt. eigenvalues --    3.68360   3.69401   3.70471   3.70672   3.71630
 Alpha virt. eigenvalues --    3.75809   3.77686   3.81519   3.83822   3.87569
 Alpha virt. eigenvalues --    3.90620   3.93540   3.94786   3.96403   4.00214
 Alpha virt. eigenvalues --    4.01842   4.04000   4.08087   4.10071   4.13714
 Alpha virt. eigenvalues --    4.16685   4.26040   4.98357   5.02295   5.02696
 Alpha virt. eigenvalues --    5.03645   5.06720   5.10602   5.16976   5.20874
 Alpha virt. eigenvalues --    5.28350   5.29805   5.32566   5.36705   5.40758
 Alpha virt. eigenvalues --    5.49919   5.55608   5.59010   5.62924   5.79366
 Alpha virt. eigenvalues --   23.68777  23.74633  23.76289  23.80028  23.81445
 Alpha virt. eigenvalues --   23.83703  23.85655  23.88964  23.90550  23.91471
 Alpha virt. eigenvalues --   23.94385  49.89526  49.90736  49.94129  49.96246
 Alpha virt. eigenvalues --   50.00046  50.02377
          Condensed to atoms (all electrons):
               1          2          3          4          5          6
     1  C    7.844577  -2.231955   1.172249  -1.182594   0.781391  -0.574731
     2  C   -2.231955  16.111653  -6.147677  -0.025522   0.644130  -0.595118
     3  C    1.172249  -6.147677  17.302275  -9.052279   4.221828  -1.965083
     4  C   -1.182594  -0.025522  -9.052279  26.866110 -18.278114   6.662985
     5  C    0.781391   0.644130   4.221828 -18.278114  32.100434 -11.461390
     6  C   -0.574731  -0.595118  -1.965083   6.662985 -11.461390  13.870064
     7  O   -0.048678   0.187587   0.146781  -0.096025  -0.225528   0.335068
     8  O    0.057101  -0.151075   0.237756  -0.029627  -0.033614  -0.074367
     9  O    0.049041  -0.412286   0.575032  -0.426217   0.168435  -0.097084
    10  O   -0.267729  -0.286292   0.413798  -0.239411   0.243732  -0.357198
    11  H    0.382592  -0.058384   0.013449  -0.009434   0.041282  -0.006952
    12  H    0.450193  -0.030484  -0.020437   0.004967  -0.018887   0.017077
    13  H   -0.010506   0.366074   0.037205  -0.050107   0.060191  -0.036117
    14  H   -0.002132  -0.052891   0.487768  -0.103884   0.066271  -0.017253
    15  H    0.007386  -0.002018   0.003005   0.443501  -0.086702  -0.015826
    16  H   -0.002815  -0.027909   0.030101  -0.045246   0.212327   0.053138
    17  H    0.043090  -0.025087   0.041597  -0.109682   0.130984   0.321550
    18  O   -0.012717   0.035962  -0.154922   0.312267  -0.090757   0.066424
    19  C   -0.219595  -0.072897   0.047416   0.097648  -0.077117  -0.154226
    20  H    0.033985  -0.011537   0.001236  -0.016549   0.026736  -0.011440
    21  H   -0.006799   0.016719  -0.013047   0.006313  -0.002165  -0.008217
    22  H   -0.005003   0.004292   0.003195  -0.002570  -0.010525   0.031637
    23  C   -0.008715   0.041424  -0.261048   0.474356  -0.805299   0.183235
    24  H   -0.001171   0.009383   0.031726  -0.042143   0.013643   0.022194
    25  H    0.000060  -0.001978  -0.014164   0.049874  -0.040776   0.006798
    26  H   -0.000312  -0.002255  -0.003042   0.014211  -0.014477   0.013319
    27  C   -0.004486  -0.013913  -0.027041  -0.224928  -0.046369  -0.043383
    28  H    0.000367  -0.008046   0.009074  -0.018240  -0.017366  -0.001667
    29  H   -0.000531   0.004420  -0.022575  -0.071244   0.088012  -0.003574
    30  H   -0.000234   0.003087  -0.004453   0.061536  -0.019767   0.001418
    31  C    0.103369  -0.535276  -0.417093   0.627523  -0.482056   0.135482
    32  O   -0.000959   0.032387   0.147741  -0.058351  -0.027216   0.005049
    33  C    0.017068  -0.121862  -0.168595   0.154545  -0.110504   0.022030
    34  H   -0.000826  -0.007107  -0.019084   0.009734  -0.002467   0.000566
    35  H    0.000623   0.006581   0.020797  -0.027803   0.002859  -0.001059
    36  H    0.000054   0.001703   0.000985   0.003548   0.000499  -0.000033
               7          8          9         10         11         12
     1  C   -0.048678   0.057101   0.049041  -0.267729   0.382592   0.450193
     2  C    0.187587  -0.151075  -0.412286  -0.286292  -0.058384  -0.030484
     3  C    0.146781   0.237756   0.575032   0.413798   0.013449  -0.020437
     4  C   -0.096025  -0.029627  -0.426217  -0.239411  -0.009434   0.004967
     5  C   -0.225528  -0.033614   0.168435   0.243732   0.041282  -0.018887
     6  C    0.335068  -0.074367  -0.097084  -0.357198  -0.006952   0.017077
     7  O    7.668101   0.020030   0.005558  -0.054300   0.005741  -0.000287
     8  O    0.020030   7.999694   0.011230   0.003517  -0.005364   0.001975
     9  O    0.005558   0.011230   8.406507   0.010721   0.004141  -0.000769
    10  O   -0.054300   0.003517   0.010721   8.561741  -0.007725  -0.065027
    11  H    0.005741  -0.005364   0.004141  -0.007725   0.373576  -0.020762
    12  H   -0.000287   0.001975  -0.000769  -0.065027  -0.020762   0.431917
    13  H   -0.040680   0.000347  -0.002454   0.010456   0.002862  -0.006151
    14  H   -0.001529   0.007398  -0.036559  -0.003221   0.000358  -0.000030
    15  H    0.000322  -0.041727   0.003101   0.001694  -0.000282   0.000027
    16  H    0.019095   0.017817   0.000478   0.014284   0.000055   0.000103
    17  H   -0.048427   0.001133   0.000529  -0.036763  -0.000208  -0.000236
    18  O    0.008964   0.008072  -0.001724  -0.003499  -0.000150   0.000183
    19  C   -0.000663  -0.014669   0.000586   0.106310   0.001781  -0.002898
    20  H   -0.000650   0.000017   0.000032  -0.041849  -0.000307   0.000227
    21  H    0.005213  -0.000034  -0.000024  -0.056883  -0.000195   0.003744
    22  H   -0.001437  -0.000017   0.000059  -0.040052   0.000148  -0.000012
    23  C    0.019669   0.003848  -0.001269  -0.017269  -0.000219   0.000267
    24  H   -0.001493   0.000569   0.000252   0.000464   0.000011   0.000002
    25  H   -0.000870  -0.000989  -0.000219  -0.000936  -0.000026  -0.000007
    26  H    0.000912   0.000074  -0.000011   0.000105   0.000000   0.000000
    27  C    0.001101   0.147823  -0.001871   0.003005  -0.003114   0.000116
    28  H   -0.000081  -0.046041   0.000098   0.000009  -0.000109   0.000001
    29  H   -0.000004  -0.038730   0.000102   0.001309   0.000055   0.000001
    30  H    0.000025  -0.067010  -0.000789  -0.000445  -0.000128  -0.000005
    31  C    0.001837  -0.014379   0.076705  -0.007890  -0.008699  -0.001052
    32  O    0.002163  -0.000072  -0.207332  -0.000197  -0.000032   0.000000
    33  C   -0.002318  -0.015077  -0.303807  -0.002044  -0.004781  -0.000088
    34  H    0.000007   0.000402  -0.000423   0.000010   0.000055   0.000001
    35  H    0.000000  -0.000631  -0.003119   0.000035  -0.000013  -0.000001
    36  H   -0.000001  -0.000114   0.016316  -0.000000   0.000000  -0.000000
              13         14         15         16         17         18
     1  C   -0.010506  -0.002132   0.007386  -0.002815   0.043090  -0.012717
     2  C    0.366074  -0.052891  -0.002018  -0.027909  -0.025087   0.035962
     3  C    0.037205   0.487768   0.003005   0.030101   0.041597  -0.154922
     4  C   -0.050107  -0.103884   0.443501  -0.045246  -0.109682   0.312267
     5  C    0.060191   0.066271  -0.086702   0.212327   0.130984  -0.090757
     6  C   -0.036117  -0.017253  -0.015826   0.053138   0.321550   0.066424
     7  O   -0.040680  -0.001529   0.000322   0.019095  -0.048427   0.008964
     8  O    0.000347   0.007398  -0.041727   0.017817   0.001133   0.008072
     9  O   -0.002454  -0.036559   0.003101   0.000478   0.000529  -0.001724
    10  O    0.010456  -0.003221   0.001694   0.014284  -0.036763  -0.003499
    11  H    0.002862   0.000358  -0.000282   0.000055  -0.000208  -0.000150
    12  H   -0.006151  -0.000030   0.000027   0.000103  -0.000236   0.000183
    13  H    0.401900  -0.003461   0.000119   0.000039   0.000298  -0.000003
    14  H   -0.003461   0.403551  -0.007164  -0.000293  -0.000124  -0.000486
    15  H    0.000119  -0.007164   0.416096  -0.000490   0.000101   0.008796
    16  H    0.000039  -0.000293  -0.000490   0.491440  -0.002536  -0.049707
    17  H    0.000298  -0.000124   0.000101  -0.002536   0.412803   0.000429
    18  O   -0.000003  -0.000486   0.008796  -0.049707   0.000429   7.736704
    19  C   -0.002553  -0.001045  -0.000150   0.000722  -0.008681   0.000307
    20  H    0.000020  -0.000001   0.000011  -0.000656   0.000357  -0.000552
    21  H   -0.000057   0.000016   0.000002  -0.000047   0.001622   0.000129
    22  H    0.000016  -0.000001   0.000001   0.000089   0.000182   0.000051
    23  C    0.000510  -0.004146  -0.004982   0.018004  -0.000276   0.178487
    24  H    0.000045  -0.002700  -0.002348   0.000671  -0.000006  -0.030282
    25  H   -0.000164  -0.000036   0.000760  -0.000842   0.000582  -0.047511
    26  H   -0.000004   0.000031  -0.000227   0.000307  -0.000284  -0.054737
    27  C   -0.000039   0.001052   0.000777   0.005799   0.000568   0.001366
    28  H    0.000002  -0.000188   0.012654  -0.000469  -0.000004   0.001096
    29  H   -0.000001   0.000042  -0.004061   0.006387   0.000053  -0.003886
    30  H   -0.000001   0.000006  -0.000240  -0.000592  -0.000002   0.000031
    31  C   -0.001489   0.010008   0.006244  -0.000372   0.000137   0.004487
    32  O   -0.000114  -0.003340  -0.004408   0.000223   0.000016   0.000083
    33  C   -0.000659  -0.005045  -0.001108  -0.000141  -0.000013  -0.000913
    34  H    0.000009  -0.000064  -0.000028   0.000000  -0.000000  -0.000001
    35  H    0.000001  -0.000031   0.000136   0.000001   0.000000   0.000002
    36  H    0.000000   0.000032  -0.000011  -0.000000   0.000000  -0.000000
              19         20         21         22         23         24
     1  C   -0.219595   0.033985  -0.006799  -0.005003  -0.008715  -0.001171
     2  C   -0.072897  -0.011537   0.016719   0.004292   0.041424   0.009383
     3  C    0.047416   0.001236  -0.013047   0.003195  -0.261048   0.031726
     4  C    0.097648  -0.016549   0.006313  -0.002570   0.474356  -0.042143
     5  C   -0.077117   0.026736  -0.002165  -0.010525  -0.805299   0.013643
     6  C   -0.154226  -0.011440  -0.008217   0.031637   0.183235   0.022194
     7  O   -0.000663  -0.000650   0.005213  -0.001437   0.019669  -0.001493
     8  O   -0.014669   0.000017  -0.000034  -0.000017   0.003848   0.000569
     9  O    0.000586   0.000032  -0.000024   0.000059  -0.001269   0.000252
    10  O    0.106310  -0.041849  -0.056883  -0.040052  -0.017269   0.000464
    11  H    0.001781  -0.000307  -0.000195   0.000148  -0.000219   0.000011
    12  H   -0.002898   0.000227   0.003744  -0.000012   0.000267   0.000002
    13  H   -0.002553   0.000020  -0.000057   0.000016   0.000510   0.000045
    14  H   -0.001045  -0.000001   0.000016  -0.000001  -0.004146  -0.002700
    15  H   -0.000150   0.000011   0.000002   0.000001  -0.004982  -0.002348
    16  H    0.000722  -0.000656  -0.000047   0.000089   0.018004   0.000671
    17  H   -0.008681   0.000357   0.001622   0.000182  -0.000276  -0.000006
    18  O    0.000307  -0.000552   0.000129   0.000051   0.178487  -0.030282
    19  C    5.362125   0.391214   0.419915   0.391614  -0.009565   0.000543
    20  H    0.391214   0.439325  -0.021409  -0.011676   0.000093  -0.000002
    21  H    0.419915  -0.021409   0.448873  -0.022014   0.000254  -0.000001
    22  H    0.391614  -0.011676  -0.022014   0.441436   0.000055   0.000000
    23  C   -0.009565   0.000093   0.000254   0.000055   5.348644   0.363114
    24  H    0.000543  -0.000002  -0.000001   0.000000   0.363114   0.499707
    25  H   -0.000307   0.000008   0.000006  -0.000000   0.402554  -0.037449
    26  H    0.000065  -0.000001  -0.000000   0.000000   0.417970  -0.018159
    27  C   -0.006500  -0.000117  -0.000053  -0.000189   0.004336  -0.000644
    28  H   -0.000004   0.000001  -0.000000  -0.000000   0.000847  -0.000118
    29  H    0.000809   0.000002   0.000001   0.000003  -0.001657   0.000025
    30  H   -0.000257  -0.000001  -0.000000  -0.000002  -0.000052   0.000001
    31  C    0.001090   0.000012  -0.000051   0.000062  -0.003748  -0.013207
    32  O   -0.000117  -0.000000  -0.000000  -0.000000   0.001763   0.000055
    33  C   -0.000341  -0.000001  -0.000005   0.000003  -0.000453  -0.001551
    34  H    0.000000   0.000000  -0.000000   0.000000  -0.000002  -0.000000
    35  H   -0.000004   0.000000   0.000000  -0.000000   0.000006  -0.000000
    36  H    0.000003   0.000000  -0.000000  -0.000000  -0.000035  -0.000001
              25         26         27         28         29         30
     1  C    0.000060  -0.000312  -0.004486   0.000367  -0.000531  -0.000234
     2  C   -0.001978  -0.002255  -0.013913  -0.008046   0.004420   0.003087
     3  C   -0.014164  -0.003042  -0.027041   0.009074  -0.022575  -0.004453
     4  C    0.049874   0.014211  -0.224928  -0.018240  -0.071244   0.061536
     5  C   -0.040776  -0.014477  -0.046369  -0.017366   0.088012  -0.019767
     6  C    0.006798   0.013319  -0.043383  -0.001667  -0.003574   0.001418
     7  O   -0.000870   0.000912   0.001101  -0.000081  -0.000004   0.000025
     8  O   -0.000989   0.000074   0.147823  -0.046041  -0.038730  -0.067010
     9  O   -0.000219  -0.000011  -0.001871   0.000098   0.000102  -0.000789
    10  O   -0.000936   0.000105   0.003005   0.000009   0.001309  -0.000445
    11  H   -0.000026   0.000000  -0.003114  -0.000109   0.000055  -0.000128
    12  H   -0.000007   0.000000   0.000116   0.000001   0.000001  -0.000005
    13  H   -0.000164  -0.000004  -0.000039   0.000002  -0.000001  -0.000001
    14  H   -0.000036   0.000031   0.001052  -0.000188   0.000042   0.000006
    15  H    0.000760  -0.000227   0.000777   0.012654  -0.004061  -0.000240
    16  H   -0.000842   0.000307   0.005799  -0.000469   0.006387  -0.000592
    17  H    0.000582  -0.000284   0.000568  -0.000004   0.000053  -0.000002
    18  O   -0.047511  -0.054737   0.001366   0.001096  -0.003886   0.000031
    19  C   -0.000307   0.000065  -0.006500  -0.000004   0.000809  -0.000257
    20  H    0.000008  -0.000001  -0.000117   0.000001   0.000002  -0.000001
    21  H    0.000006  -0.000000  -0.000053  -0.000000   0.000001  -0.000000
    22  H   -0.000000   0.000000  -0.000189  -0.000000   0.000003  -0.000002
    23  C    0.402554   0.417970   0.004336   0.000847  -0.001657  -0.000052
    24  H   -0.037449  -0.018159  -0.000644  -0.000118   0.000025   0.000001
    25  H    0.511002  -0.021003  -0.000410   0.000010  -0.000008   0.000001
    26  H   -0.021003   0.452520   0.000146   0.000003  -0.000003   0.000000
    27  C   -0.000410   0.000146   5.210568   0.423023   0.405433   0.403099
    28  H    0.000010   0.000003   0.423023   0.503637  -0.040346  -0.018146
    29  H   -0.000008  -0.000003   0.405433  -0.040346   0.537979  -0.025742
    30  H    0.000001   0.000000   0.403099  -0.018146  -0.025742   0.476592
    31  C    0.006124   0.000272  -0.033870   0.007029  -0.001199   0.001477
[...]
 75,-0.00023491,-0.00006191,-0.00003501,0.00002013,0.00002114,0.0000169
 6,0.00002961,0.00005008,-0.00003855,0.00002632,-0.00178190,-0.00054602
 ,0.00009609,0.00004853,-0.00012236,-0.00023729,0.00019514,0.00032800,0
 .00013117,0.00009940,0.00011882,-0.00010002,-0.00167743,-0.00185403,0.
 00120487,-0.00007459,0.00097764,-0.00037191,0.00027217,0.00030094,-0.0
 0032829,0.00044155,0.00016369,-0.00013152,-0.07162262,0.04747728,1.028
 14114,0.00037671,-0.00008455,0.00017864,0.00109484,0.00146580,0.000837
 88,0.00395151,0.00849816,0.00627517,-0.00259930,-0.00202221,-0.0039770
 2,-0.00071781,0.00085975,0.00214657,-0.00000999,-0.00025580,-0.0006378
 3,-0.00080776,-0.00039234,-0.00045728,-0.00036903,0.00120500,-0.000034
 10,-0.01943312,-0.03418756,0.06063063,-0.00078337,-0.00010710,0.000084
 80,0.00031330,-0.00014620,-0.00026505,-0.00018314,-0.00004776,-0.00002
 083,-0.00017639,0.00020433,-0.00010559,-0.00128186,-0.00051288,-0.0004
 6620,-0.00328029,-0.00123305,0.00071189,-0.00024753,-0.00019409,-0.000
 15504,-0.00015998,-0.00013225,0.00016483,0.00072588,-0.00062394,-0.000
 76776,0.00059519,0.00020634,-0.00027973,-0.00001646,-0.00003391,0.0000
 0530,-0.00001747,0.00000043,0.00001013,0.00000570,-0.00003027,0.000005
 92,-0.00062766,0.00031555,-0.00000104,-0.00011926,0.00003601,0.0001632
 8,0.00005811,0.00005588,0.00008386,-0.00004197,-0.00003542,-0.00008073
 ,0.00030299,-0.00110842,0.00045391,-0.00004778,-0.00006528,-0.00008911
 ,-0.00006614,0.00007934,-0.00009116,-0.00011353,0.00011625,0.00002348,
 -0.12779299,-0.02070107,0.14131022,0.13148376,0.00008032,-0.00055134,0
 .00043768,0.00054743,0.00228567,0.00119923,0.00566790,-0.00021705,0.00
 548306,0.00059067,-0.00156978,0.00071821,0.00023337,0.00033625,-0.0000
 5499,0.00083611,-0.00060284,0.00033037,-0.00092346,0.00003283,-0.00057
 808,-0.00026415,0.00196100,-0.00054256,-0.03418690,0.00373622,0.042078
 14,-0.00079165,0.00005635,0.00007003,0.00029352,-0.00021873,-0.0002018
 8,-0.00027227,0.00001426,0.00002286,-0.00003589,0.00013940,-0.00013052
 ,-0.00098035,0.00000410,0.00005622,-0.00061940,-0.00024321,-0.00051396
 ,-0.00015576,-0.00008286,-0.00007609,-0.00005399,0.00007873,-0.0000434
 4,-0.00027203,0.00020930,-0.00004420,0.00038414,0.00013259,-0.00022845
 ,-0.00003558,-0.00004133,0.00000350,-0.00000876,0.00000953,0.00001216,
 0.00001363,-0.00003858,0.00000757,0.00039619,-0.00008492,-0.00007776,0
 .00000324,-0.00019558,0.00029818,0.00005731,0.00018319,0.00000947,-0.0
 0012439,-0.00001550,-0.00005106,-0.00058631,-0.00128037,0.00072790,0.0
 0002470,0.00028946,-0.00035922,0.00018678,0.00022941,-0.00014114,-0.00
 000491,0.00014418,-0.00003611,-0.02153859,-0.09584893,0.02759434,0.054
 68688,0.07211339,-0.00155490,-0.00062485,-0.00036828,-0.00216454,-0.00
 092282,0.00197856,-0.00861807,-0.00808915,-0.01387592,0.00054553,0.001
 91040,-0.00306492,0.00023251,-0.00182292,0.00083334,-0.00126056,0.0009
 2423,-0.00197465,0.00300657,0.00156515,0.00159019,-0.00034525,-0.00098
 866,0.00246800,0.06834220,0.04830921,-0.04146845,0.00101074,0.00007448
 ,0.00091980,-0.00077333,0.00020526,0.00009207,0.00002004,0.00008818,0.
 00012509,-0.00023947,-0.00076227,0.00028486,0.00120676,0.00329162,0.00
 176493,0.00069115,-0.00131703,0.00223972,0.00021909,0.00021916,0.00023
 475,0.00004635,-0.00031622,0.00028860,-0.00105949,0.00026326,0.0011609
 5,-0.00031797,-0.00009355,0.00028857,0.00006849,0.00003348,-0.00002392
 ,-0.00000901,-0.00001355,-0.00003746,-0.00006350,0.00002990,-0.0000175
 3,0.00147999,0.00047590,-0.00002841,0.00001688,0.00023308,0.00023780,-
 0.00020646,-0.00029605,-0.00009864,-0.00007384,-0.00011088,0.00008784,
 0.00112305,0.00158771,-0.00091092,-0.00005540,-0.00063871,0.00017212,-
 0.00012107,-0.00024616,0.00026526,-0.00029096,-0.00011896,0.00009985,0
 .12368648,0.01510210,-0.73870836,-0.19125492,-0.05285555,0.83611722,0.
 00016288,-0.00008181,0.00002146,0.00018257,-0.00003982,-0.00142037,-0.
 00023091,-0.00367823,0.00355944,0.00051328,-0.00017576,0.00045933,0.00
 016150,0.00020103,-0.00002498,0.00050128,-0.00038299,0.00019963,-0.001
 12163,-0.00061214,-0.00016154,0.00001714,0.00046210,-0.00005049,-0.018
 98317,-0.02835793,-0.02214457,-0.00023338,0.00008323,0.00006080,0.0000
 3501,-0.00003103,-0.00000603,-0.00005142,0.00001596,0.00000384,0.00003
 868,0.00009284,-0.00002463,-0.00052968,-0.00044617,-0.00013176,-0.0002
 3327,0.00020340,-0.00033735,-0.00002347,-0.00000163,-0.00002715,-0.000
 03135,0.00005345,-0.00003718,0.00003636,-0.00001509,-0.00010488,0.0001
 3140,0.00004718,-0.00005602,-0.00000772,-0.00001096,0.00000054,-0.0000
 0053,0.00000237,0.00000178,-0.00000125,-0.00001396,0.00000277,-0.00005
 798,-0.00004210,-0.00000593,-0.00001105,-0.00005129,-0.00000130,0.0000
 1626,0.00005305,0.00001990,-0.00001716,0.00001391,-0.00001753,-0.00012
 414,-0.00019673,0.00011064,0.00002693,0.00006217,-0.00004838,0.0000185
 7,0.00004452,-0.00001573,-0.00001561,0.00003848,-0.00001657,-0.1147896
 3,-0.02717571,-0.05054744,0.01941360,-0.00477894,0.01031348,0.57345844
 ,0.00013992,0.00003075,0.00000600,-0.00019579,0.00007979,-0.00073149,-
 0.00230330,0.00209521,0.00300358,-0.00060476,-0.00101922,-0.00062264,-
 0.00021268,0.00047613,0.00016914,0.00025613,-0.00010259,-0.00004056,-0
 .00043928,-0.00041191,-0.00002418,-0.00005810,0.00036162,-0.00001493,-
 0.02523819,-0.01389460,-0.01904362,-0.00019206,0.00000025,0.00005623,0
 .00009027,0.00001828,-0.00003624,-0.00005482,-0.00001285,-0.00000623,-
 0.00000810,-0.00001115,0.00000268,0.00047048,0.00002761,-0.00017684,0.
 00000669,-0.00005132,0.00016730,-0.00010366,-0.00008339,-0.00005473,-0
 .00001399,-0.00001079,0.00000313,0.00008611,-0.00012248,-0.00016159,0.
 00014163,0.00005159,-0.00005433,-0.00000219,-0.00000807,0.00000014,-0.
 00000411,-0.00000064,0.00000071,-0.00000026,-0.00000814,0.00000083,-0.
 00009234,0.00004692,-0.00001366,-0.00001618,-0.00001940,0.00001183,0.0
 0001403,0.00002127,0.00001907,-0.00000857,-0.00000413,-0.00001820,-0.0
 0003604,-0.00026319,0.00013722,0.00000960,-0.00000199,-0.00008957,0.00
 001769,0.00004070,-0.00003554,-0.00004012,0.00001480,0.00000706,-0.027
 01231,-0.12225560,-0.05040193,-0.00724916,0.02101549,-0.00189216,0.021
 00129,0.54934626,-0.00005616,-0.00001561,0.00001454,0.00016987,0.00004
 973,0.00089717,0.00418796,0.00358029,0.00048018,-0.00003844,0.00015409
 ,-0.00046332,0.00003703,-0.00008788,0.00010590,-0.00014178,0.00013607,
 -0.00030463,0.00047075,0.00044819,0.00009925,-0.00015865,0.00004275,0.
 00019235,0.00108866,0.00037638,0.00969319,-0.00009262,-0.00003309,0.00
 010393,0.00003565,0.00000172,-0.00006938,-0.00001942,-0.00002088,-0.00
 000811,0.00000368,0.00004440,-0.00000533,-0.00011220,0.00013828,-0.000
 09830,0.00031015,-0.00012828,0.00032901,-0.00000741,0.00001329,0.00002
 512,-0.00001191,-0.00004132,0.00004570,-0.00017488,-0.00004868,0.00002
 677,0.00009714,0.00003584,-0.00003309,0.00000202,-0.00000376,-0.000001
 73,-0.00000499,-0.00000239,-0.00000100,-0.00000312,-0.00000203,-0.0000
 0169,0.00022083,0.00009850,-0.00001640,-0.00001742,0.00000507,0.000073
 40,-0.00002206,-0.00001147,-0.00000300,-0.00002997,-0.00002476,-0.0000
 0174,0.00016945,-0.00004038,0.00001654,0.00001696,-0.00006091,0.000029
 07,-0.00002746,-0.00001801,-0.00000924,-0.00001262,-0.00000168,0.00001
 333,-0.04963893,-0.05070279,-0.15411258,-0.00938781,-0.01929282,-0.045
 73526,-0.03787402,-0.03786376,0.53567173,-0.00009810,-0.00003373,-0.00
 007116,0.00002851,0.00001580,-0.00013780,0.00017185,-0.00022049,0.0000
 8215,0.00005950,0.00009583,0.00007824,0.00003044,-0.00001963,-0.000014
 76,0.00000924,0.00002101,-0.00009574,0.00001469,-0.00001114,0.00008787
 ,-0.00004741,-0.00006219,0.00002105,-0.00026539,-0.00201393,0.00058695
 ,0.00004558,0.00001872,0.00009985,-0.00003255,0.00002368,-0.00004241,-
 0.00001834,-0.00001219,-0.00000002,-0.00000204,-0.00005153,-0.00001886
 ,-0.00002434,0.00001830,0.00004037,0.00003532,-0.00001412,0.00003525,0
 .00000380,0.00000641,0.00000600,-0.00000258,-0.00000847,0.00000966,-0.
 00004650,-0.00000725,0.00002688,-0.00001503,-0.00000364,0.00001332,0.0
 0000340,0.00000174,-0.00000020,-0.00000169,-0.00000245,-0.00000398,-0.
 00000727,0.00000240,-0.00000284,0.00003910,0.00000849,0.00000018,-0.00
 000092,-0.00000121,0.00000560,-0.00000179,-0.00000416,-0.00000391,-0.0
 0000080,-0.00000228,0.00000259,0.00004141,0.00001526,0.00000538,-0.000
 00412,-0.00001465,0.00003430,-0.00001124,-0.00001330,-0.00000082,0.000
 01137,0.00000095,-0.00000387,-0.00528302,0.01336492,-0.00681287,0.0005
 8396,-0.00159563,-0.00079501,-0.07108491,0.05212238,-0.06143961,0.0723
 7059,-0.00000448,0.00000289,0.00001345,0.00004328,0.00006068,-0.000026
 93,0.00041269,0.00022696,0.00016009,0.00004716,-0.00003071,-0.00002322
 ,0.00001437,0.00001106,0.00000553,-0.00001105,0.00000762,-0.00001162,-
 0.00000851,-0.00001886,0.00000460,-0.00001147,0.00008374,0.00001325,-0
 .00018253,-0.00143155,0.00007057,0.00000751,-0.00000308,0.00000018,0.0
 0001292,-0.00000592,0.00000886,-0.00000479,0.00000307,0.00000242,-0.00
 002470,-0.00000955,-0.00000409,-0.00004753,-0.00000876,-0.00002518,0.0
 0003133,-0.00000432,0.00001047,-0.00000847,-0.00000623,-0.00000223,-0.
 00000114,-0.00000195,0.00000264,-0.00001610,-0.00000234,0.00000205,-0.
 00000066,0.00000130,0.00000056,0.00000038,-0.00000052,-0.00000053,-0.0
 0000039,0.00000032,0.00000028,0.00000021,-0.00000060,0.00000164,0.0000
 2401,0.00001211,-0.00000364,-0.00000037,-0.00000192,0.00000912,-0.0000
 0345,-0.00000115,-0.00000017,-0.00000460,-0.00000287,-0.00000029,-0.00
 000480,-0.00007242,0.00003418,0.00000544,-0.00000731,-0.00003423,0.000
 01143,0.00001979,-0.00000130,-0.00002610,0.00000624,0.00000154,-0.0066
 0302,0.01500604,-0.01082084,0.00114454,-0.00341270,-0.00370070,0.05279
 507,-0.16345906,0.12679777,-0.05950495,0.17518853,-0.00002744,-0.00000
 876,0.00002116,-0.00004014,0.00001570,-0.00001603,0.00019117,-0.000875
 45,-0.00018107,0.00019282,0.00022090,0.00012042,0.00004054,-0.00010178
 ,0.00002234,-0.00004961,0.00002101,0.00000251,0.00003898,-0.00000403,0
 .00000822,0.00000038,-0.00002068,0.00002099,0.00151809,-0.00036860,0.0
 0154407,0.00003870,-0.00000561,-0.00001658,-0.00001301,-0.00000068,0.0
 0001434,0.00000654,0.00000842,0.00000734,-0.00003135,-0.00002704,0.000
 01329,-0.00008152,0.00007043,-0.00001511,0.00004200,-0.00001060,0.0000
 1842,0.00002091,0.00001405,0.00001079,0.00000124,-0.00000233,0.0000022
 3,-0.00001064,0.00001581,0.00002668,-0.00002203,-0.00000707,0.00001060
 ,0.00000120,0.00000144,-0.00000076,0.00000072,0.00000087,0.00000082,0.
 00000087,0.00000080,0.00000096,0.00002649,0.00000889,-0.00000318,0.000
 00141,0.00000945,0.00000755,-0.00000889,-0.00000826,-0.00000198,-0.000
 00338,-0.00000229,0.00000155,0.00001311,0.00003736,-0.00002260,0.00000
 253,-0.00001179,0.00000089,-0.00000061,-0.00000136,0.00000746,-0.00001
 052,-0.00000290,0.00000066,-0.00626847,0.02034587,-0.01983717,-0.00108
 804,-0.00527617,-0.00260575,-0.06205499,0.12711041,-0.17349576,0.06631
 243,-0.13556571,0.18951033,-0.00000934,-0.00004258,-0.00002592,0.00004
 225,0.00006809,0.00001367,0.00024018,0.00058694,0.00018171,0.00000996,
 -0.00027505,-0.00013631,-0.00004264,0.00004323,0.00000878,0.00003020,-
 0.00000994,-0.00005353,-0.00000684,0.00001034,0.00001761,0.00003893,0.
 00015018,0.00022487,-0.00184843,-0.00032102,-0.00020559,-0.00000589,0.
 00002190,0.00004494,-0.00000764,-0.00004289,-0.00001908,-0.00000755,0.
 00000828,0.00000702,-0.00000422,0.00000342,-0.00000013,-0.00000476,-0.
 00000532,-0.00005833,0.00004579,-0.00000239,0.00007603,-0.00002581,-0.
 00001021,-0.00000841,-0.00000421,-0.00000367,0.00000633,-0.00001810,0.
 00000631,0.00002008,-0.00000080,-0.00000039,-0.00000016,0.00000031,-0.
 00000145,-0.00000038,-0.00000033,0.00000069,-0.00000067,-0.00000452,-0
 .00000310,0.00000070,0.00002852,0.00000462,-0.00000907,-0.00000490,0.0
 0000040,0.00001065,-0.00000210,0.00000292,0.00000065,-0.00000667,-0.00
 000113,-0.00000194,0.00001065,0.00003996,-0.00006414,0.00000745,-0.000
 00193,-0.00001186,0.00000664,0.00001228,0.00002302,-0.00003897,0.00002
 099,-0.00001007,0.01295792,-0.01116182,-0.00353523,-0.00167399,0.00151
 841,-0.00330665,-0.16951375,0.10925999,0.07992265,-0.00693610,0.004934
 41,0.00498174,0.18038770,-0.00008345,-0.00006881,-0.00009236,0.0000220
 5,-0.00000732,-0.00004305,-0.00046045,0.00038869,-0.00005613,-0.000049
 43,-0.00013995,-0.00015107,-0.00003680,0.00004024,-0.00000588,0.000021
 12,0.00001531,-0.00010088,0.00003826,0.00001708,0.00007617,0.00006762,
 -0.00004856,0.00017559,-0.00180446,0.00051429,0.00029338,0.00004834,0.
 00003339,0.00010162,-0.00008157,-0.00002866,-0.00004356,-0.00000935,0.
 00000289,0.00000609,0.00000904,-0.00002217,-0.00000486,0.00008811,0.00
 009979,0.00011141,0.00002128,-0.00002220,0.00007015,-0.00001346,-0.000
 00839,-0.00000545,-0.00000404,-0.00000649,0.00000963,-0.00002998,0.000
 00401,0.00004379,-0.00002776,-0.00000717,0.00001730,0.00000331,0.00000
 185,-0.00000013,-0.00000013,-0.00000141,-0.00000398,-0.00000912,0.0000
 0170,-0.00000254,0.00003429,0.00000605,-0.00000132,-0.00000113,0.00000
 429,0.00000284,-0.00000283,-0.00000520,-0.00000231,-0.00000075,-0.0000
 0110,0.00000249,-0.00000402,0.00015973,-0.00009498,-0.00002281,-0.0000
 1072,0.00002014,-0.00000033,-0.00002515,0.00001975,0.00000945,0.000010
 12,-0.00000684,0.01362900,-0.01057974,-0.00484108,-0.00169306,0.000366
 09,-0.00043905,0.10942191,-0.14307393,-0.07395651,0.01319328,-0.012422
 43,-0.00988117,-0.12084479,0.15220371,0.00001096,-0.00001749,0.0000228
 7,-0.00005157,0.00001800,0.00009462,-0.00052134,0.00046827,-0.00021716
 ,0.00000351,-0.00036558,-0.00031472,-0.00006935,0.00000577,0.00002879,
 -0.00003079,-0.00001083,0.00001402,0.00005240,0.00003229,-0.00002457,0
 .00012568,0.00029944,0.00021936,-0.00034556,0.00165116,0.00083071,0.00
 001329,0.00001157,-0.00004088,-0.00001763,-0.00004084,0.00004552,0.000
 01208,0.00002029,0.00000993,-0.00000756,0.00000028,0.00000897,0.000163
 18,0.00018502,0.00003245,0.00005557,-0.00004831,0.00010275,-0.00002952
 ,-0.00001922,-0.00001002,0.00000301,-0.00000275,0.00000026,-0.00001504
 ,0.00005543,0.00005053,-0.00002732,-0.00000908,0.00000837,-0.00000078,
 -0.00000209,-0.00000144,0.00000145,0.00000241,0.00000101,0.00000230,-0
 .00000211,0.00000467,0.00004699,-0.00000422,-0.00000402,0.00000296,0.0
 0000655,0.00000629,-0.00000665,-0.00000282,-0.00000293,-0.00000316,-0.
 00000251,0.00000259,-0.00009349,-0.00004540,0.00001110,0.00001792,-0.0
 0000363,-0.00013181,0.00005910,0.00005085,0.00001944,-0.00007622,0.000
 01226,0.00000751,0.02153308,-0.01612256,-0.01334038,-0.00509365,0.0004
 2698,-0.00352914,0.08122201,-0.07482501,-0.09091303,-0.01548708,0.0141
 7928,0.01087821,-0.08634037,0.08047103,0.10089755,0.00003777,0.0000066
 8,0.00001871,0.00003227,0.00003245,-0.00023510,0.00038530,-0.00040359,
 0.00071414,0.00002459,-0.00007201,0.00008974,-0.00000579,0.00004930,0.
 00001779,0.00008035,-0.00005943,0.00003704,-0.00017953,-0.00010495,-0.
 00002904,-0.00004265,0.00016034,-0.00010501,-0.00084230,-0.00200479,-0
 .00268786,-0.00005001,0.00000797,-0.00000061,0.00002893,0.00000984,-0.
 00000049,-0.00001250,-0.00000271,-0.00000234,0.00000095,0.00000566,-0.
 00000937,-0.00009573,-0.00011583,-0.00010349,-0.00002135,0.00000832,-0
 .00003403,-0.00001304,-0.00001013,-0.00000887,-0.00000471,0.00000610,-
 0.00000575,0.00001192,-0.00000271,-0.00002958,0.00002859,0.00000921,-0
 .00001160,-0.00000171,-0.00000275,0.00000008,-0.00000047,0.00000024,0.
 00000031,0.00000090,-0.00000240,0.00000085,-0.00001343,-0.00000908,-0.
 00000181,-0.00000081,-0.00001055,0.00000190,0.00000406,0.00001197,0.00
 000251,-0.00000274,0.00000162,-0.00000380,-0.00004016,-0.00015890,0.00
 011247,0.00000935,0.00000435,-0.00004384,0.00001849,0.00002629,-0.0000
 1863,-0.00000619,0.00000535,0.00000209,-0.01199672,-0.00534561,0.00777
 615,0.00166127,0.00170836,0.00050107,-0.21765190,-0.11973023,0.0725386
 8,0.01043537,0.00698435,-0.00372121,-0.01363895,-0.01142733,0.00489156
 ,0.23186059,0.00002901,-0.00002191,-0.00001189,0.00003735,0.00003256,-
 0.00021922,-0.00063374,0.00030465,0.00054133,-0.00006753,-0.00024044,-
 0.00007550,-0.00002722,0.00012901,0.00001158,0.00009238,-0.00004906,0.
 00001325,-0.00016910,-0.00011456,-0.00002007,0.00000639,0.00005113,0.0
 0002328,-0.00244959,-0.00119660,-0.00332002,-0.00004018,0.00001387,0.0
 0002023,-0.00000439,-0.00002381,-0.00001585,-0.00001094,0.00000373,0.0
 0000159,0.00000505,0.00001817,0.00000528,-0.00001027,-0.00003697,0.000
 03375,-0.00003475,0.00002916,-0.00002366,-0.00002137,-0.00001674,-0.00
 001579,-0.00000673,0.00000647,-0.00000347,0.00003350,-0.00003228,-0.00
 004120,0.00002445,0.00000938,-0.00001090,-0.00000105,-0.00000144,0.000
 00025,-0.00000019,0.00000033,0.00000018,-0.00000179,-0.00000251,0.0000
 0007,-0.00003767,0.00000659,0.00000188,-0.00000237,-0.00000265,0.00000
 037,0.00000319,0.00000667,0.00000614,-0.00000247,0.00000161,-0.0000048
 5,-0.00000493,0.00000150,-0.00001888,-0.00000273,0.00001353,0.00000256
 ,-0.00000173,0.00000221,0.00000354,-0.00000271,0.00001372,-0.00000745,
 -0.01132696,-0.01054522,0.00836069,0.00198208,0.00106629,0.00093614,-0
 .11849969,-0.12881224,0.05043466,-0.01531223,-0.00972609,0.00430087,0.
 01603434,0.01261018,-0.00637243,0.13042458,0.13650175,0.00000423,-0.00
 004189,-0.00003494,0.00000329,0.00004001,-0.00048892,-0.00084145,-0.00
 094520,0.00082406,0.00006207,-0.00018324,0.00008869,-0.00000755,0.0000
 9993,0.00002125,0.00015127,-0.00009795,0.00001616,-0.00032162,-0.00023
 009,-0.00001671,-0.00003781,0.00015718,-0.00002492,-0.00364147,-0.0040
 1470,-0.00434753,-0.00003842,0.00003297,0.00005863,-0.00001134,-0.0000
 0740,-0.00002895,-0.00002752,0.00000021,0.00000314,0.00000366,-0.00001
 003,-0.00001516,-0.00001631,-0.00005487,0.00000507,-0.00002144,0.00002
 755,-0.00002252,-0.00002166,-0.00001270,-0.00001586,-0.00000961,0.0000
 0894,-0.00000501,0.00002124,-0.00001580,-0.00003590,0.00002489,0.00000
 861,-0.00000700,-0.00000057,-0.00000208,0.00000031,-0.00000092,-0.0000
 0021,-0.00000171,-0.00000444,-0.00000292,-0.00000031,-0.00002587,-0.00
 000599,-0.00000150,-0.00000267,-0.00000927,0.00000626,0.00000668,0.000
 01392,0.00000566,-0.00000524,0.00000057,-0.00000570,-0.00003223,-0.000
 08905,0.00005200,0.00000589,0.00000637,-0.00001375,0.00000790,0.000015
 30,-0.00000625,-0.00000657,0.00001770,-0.00000785,-0.02159364,-0.01382
 343,0.01076353,0.00116639,0.00102810,0.00119810,0.07913325,0.05541191,
 -0.08254360,0.01748290,0.00890223,-0.00605587,0.00824737,0.00831178,-0
 .00476743,-0.07965265,-0.05453646,0.08540452\\0.00000280,-0.00000331,-
 0.00000303,-0.00000269,-0.00000444,-0.00000577,0.00000388,0.00000213,0
 .00000340,-0.00000278,-0.00000039,0.00000051,0.00000173,0.00000203,-0.
 00000118,-0.00000153,0.00000290,-0.00000448,0.00000574,-0.00000177,-0.
 00000285,-0.00000107,0.00000355,0.00000281,-0.00000445,-0.00000171,-0.
 00000419,0.00000002,-0.00000466,0.00000207,0.00000155,-0.00000469,0.00
 000200,0.00000562,-0.00000696,-0.00000108,0.00000502,-0.00000087,-0.00
 000423,-0.00000029,0.00000323,-0.00000447,-0.00000209,0.00000481,0.000
 00179,-0.00000160,0.00000169,0.00000317,0.00000208,-0.00000199,-0.0000
 0015,-0.00000490,-0.00000112,0.00000127,0.00000573,-0.00000480,-0.0000
 0155,0.00000129,-0.00000561,0.00000280,0.00000427,-0.00000672,0.000000
 36,0.00000254,-0.00000854,0.00000321,0.00000082,0.00001039,-0.00000537
 ,-0.00000205,0.00000568,-0.00000232,-0.00000032,0.00000401,-0.00000464
 ,-0.00000224,0.00000796,-0.00000349,-0.00000386,-0.00000585,0.00000966
 ,-0.00000471,0.00000288,0.00000426,-0.00000522,0.00000208,0.00000540,-
 0.00000386,-0.00000084,0.00000715,0.00000209,0.00000522,0.00000406,-0.
 00000130,0.00000449,-0.00000228,-0.00000226,-0.00000003,-0.00000130,0.
 00000273,-0.00000080,-0.00000287,0.00000011,-0.00000066,0.00000117,-0.
 00000081,0.00000269,0.00000020\\\@


 THE CAUTIOUS SELDOM ERR...CONFUCIUS                   
 Job cpu time:       0 days  2 hours 33 minutes 47.4 seconds.
 File lengths (MBytes):  RWF=    766 Int=      0 D2E=      0 Chk=     19 Scr=      1
 Normal termination of Gaussian 09 at Tue Oct 24 14:59:10 2017.
