 Entering Gaussian System, Link 0=g09
 Initial command:
 /share/apps//g09/l1.exe "/scratch/Gau-39468.inp" -scrdir="/scratch/"
 Entering Link 1 = /share/apps//g09/l1.exe PID=     39469.
  
 Copyright (c) 1988,1990,1992,1993,1995,1998,2003,2009,2013,
            Gaussian, Inc.  All Rights Reserved.
  
 This is part of the Gaussian(R) 09 program.  It is based on
 the Gaussian(R) 03 system (copyright 2003, Gaussian, Inc.),
 the Gaussian(R) 98 system (copyright 1998, Gaussian, Inc.),
 the Gaussian(R) 94 system (copyright 1995, Gaussian, Inc.),
 the Gaussian 92(TM) system (copyright 1992, Gaussian, Inc.),
 the Gaussian 90(TM) system (copyright 1990, Gaussian, Inc.),
 the Gaussian 88(TM) system (copyright 1988, Gaussian, Inc.),
 the Gaussian 86(TM) system (copyright 1986, Carnegie Mellon
 University), and the Gaussian 82(TM) system (copyright 1983,
 Carnegie Mellon University). Gaussian is a federally registered
 trademark of Gaussian, Inc.
  
 This software contains proprietary and confidential information,
 including trade secrets, belonging to Gaussian, Inc.
  
 This software is provided under written license and may be
 used, copied, transmitted, or stored only in accord with that
 written license.
  
 The following legend is applicable only to US Government
 contracts under FAR:
  
                    RESTRICTED RIGHTS LEGEND
  
 Use, reproduction and disclosure by the US Government is
 subject to restrictions as set forth in subparagraphs (a)
 and (c) of the Commercial Computer Software - Restricted
 Rights clause in FAR 52.227-19.
  
 Gaussian, Inc.
 340 Quinnipiac St., Bldg. 40, Wallingford CT 06492
  
  
 ---------------------------------------------------------------
 Warning -- This program may not be used in any manner that
 competes with the business of Gaussian, Inc. or will provide
 assistance to any competitor of Gaussian, Inc.  The licensee
 of this program is prohibited from giving any competitor of
 Gaussian, Inc. access to this program.  By using this program,
 the user acknowledges that Gaussian, Inc. is engaged in the
 business of creating and licensing software in the field of
 computational chemistry and represents and warrants to the
 licensee that it is not a competitor of Gaussian, Inc. and that
 it will not use this program in any manner prohibited above.
 ---------------------------------------------------------------
  

 Cite this work as:
 Gaussian 09, Revision D.01,
 M. J. Frisch, G. W. Trucks, H. B. Schlegel, G. E. Scuseria, 
 M. A. Robb, J. R. Cheeseman, G. Scalmani, V. Barone, B. Mennucci, 
 G. A. Petersson, H. Nakatsuji, M. Caricato, X. Li, H. P. Hratchian, 
 A. F. Izmaylov, J. Bloino, G. Zheng, J. L. Sonnenberg, M. Hada, 
 M. Ehara, K. Toyota, R. Fukuda, J. Hasegawa, M. Ishida, T. Nakajima, 
 Y. Honda, O. Kitao, H. Nakai, T. Vreven, J. A. Montgomery, Jr., 
 J. E. Peralta, F. Ogliaro, M. Bearpark, J. J. Heyd, E. Brothers, 
 K. N. Kudin, V. N. Staroverov, T. Keith, R. Kobayashi, J. Normand, 
 K. Raghavachari, A. Rendell, J. C. Burant, S. S. Iyengar, J. Tomasi, 
 M. Cossi, N. Rega, J. M. Millam, M. Klene, J. E. Knox, J. B. Cross, 
 V. Bakken, C. Adamo, J. Jaramillo, R. Gomperts, R. E. Stratmann, 
 O. Yazyev, A. J. Austin, R. Cammi, C. Pomelli, J. W. Ochterski, 
 R. L. Martin, K. Morokuma, V. G. Zakrzewski, G. A. Voth, 
 P. Salvador, J. J. Dannenberg, S. Dapprich, A. D. Daniels, 
 O. Farkas, J. B. Foresman, J. V. Ortiz, J. Cioslowski, 
 and D. J. Fox, Gaussian, Inc., Wallingford CT, 2013.
 
 ******************************************
 Gaussian 09:  EM64L-G09RevD.01 24-Apr-2013
                10-Jan-2017 
 ******************************************
 %nproc=20
 Will use up to   20 processors via shared memory.
 %mem=100GB
 %chk=Ac-4_cGalMe.chk
 -------------------------------------------------------------------
 #P PBE1PBE/6-311+G(d,p) opt optcyc=999 freq EmpiricalDispersion=GD3
 -------------------------------------------------------------------
 1/6=999,14=-1,18=20,19=15,26=3,38=1/1,3;
 2/9=110,12=2,17=6,18=5,40=1/2;
 3/5=4,6=6,7=111,11=2,16=1,25=1,30=1,71=1,74=-13,124=31/1,2,3;
 4//1;
 5/5=2,38=5/2;
 6/7=2,8=2,9=2,10=2,28=1/1;
 7//1,2,3,16;
 1/6=999,14=-1,18=20,19=15,26=3/3(2);
 2/9=110/2;
 99//99;
 2/9=110/2;
 3/5=4,6=6,7=111,11=2,16=1,25=1,30=1,71=1,74=-13,124=31/1,2,3;
 4/5=5,16=3,69=1/1;
 5/5=2,38=5/2;
 7//1,2,3,16;
 1/6=999,14=-1,18=20,19=15,26=3/3(-5);
 2/9=110/2;
 6/7=2,8=2,9=2,10=2,19=2,28=1/1;
 99/9=1/99;
 Leave Link    1 at Tue Jan 10 12:30:01 2017, MaxMem= 13421772800 cpu:         1.4
 (Enter /share/apps//g09/l101.exe)
 -------
 disacch
 -------
 Symbolic Z-matrix:
 Charge =  1 Multiplicity = 1
 C                    -1.87905   2.29342   0.17616 
 C                    -0.78993   1.28771   0.5856 
 C                     0.60147   1.89439   0.67676 
 C                     1.67081   0.84471   1.07064 
 C                     1.33459  -0.51043   0.47604 
 C                     0.16494  -0.73883  -0.19045 
 O                    -0.83631   0.19625  -0.34855 
 O                     2.96885   1.21563   0.65268 
 O                     0.95193   2.64458  -0.57425 
 O                    -1.86397   3.41416   1.03921 
 H                    -2.85252   1.77603   0.17071 
 H                    -1.68505   2.65095  -0.84692 
 H                    -1.00696   0.8927    1.59818 
 H                     0.57311   2.7269    1.38956 
 H                     1.63065   0.75739   2.17523 
 H                     1.37937   0.28456  -1.32061 
 H                    -0.10262  -1.69498  -0.63731 
 O                     2.30502  -1.41767   0.71706 
 C                    -2.80293   3.3335    2.12264 
 H                    -2.69162   4.26096   2.69496 
 H                    -3.8349    3.26372   1.74253 
 H                    -2.60215   2.47624   2.78817 
 C                     2.10363  -2.75929   0.23486 
 H                     1.18949  -3.19663   0.6651 
 H                     2.05429  -2.77677  -0.865 
 H                     2.97882  -3.32259   0.57029 
 C                     3.6423    2.11323   1.55224 
 H                     3.16233   3.10536   1.58435 
 H                     3.68362   1.68724   2.56716 
 H                     4.66048   2.22005   1.16398 
 C                     1.43005   2.20594  -1.6941 
 O                     1.6296    0.9822   -2.03222 
 C                     1.78167   3.24827  -2.68843 
 H                     1.26801   4.18787  -2.4685 
 H                     1.56029   2.8921   -3.70033 
 H                     2.86869   3.41593  -2.62654 
 
 NAtoms=     36 NQM=       36 NQMF=       0 NMMI=      0 NMMIF=      0
                NMic=       0 NMicF=      0.
                    Isotopes and Nuclear Properties:
 (Nuclear quadrupole moments (NQMom) in fm**2, nuclear magnetic moments (NMagM)
  in nuclear magnetons)

  Atom         1           2           3           4           5           6           7           8           9          10
 IAtWgt=          12          12          12          12          12          12          16          16          16          16
 AtmWgt=  12.0000000  12.0000000  12.0000000  12.0000000  12.0000000  12.0000000  15.9949146  15.9949146  15.9949146  15.9949146
 NucSpn=           0           0           0           0           0           0           0           0           0           0
 AtZEff=   0.0000000   0.0000000   0.0000000   0.0000000   0.0000000   0.0000000   0.0000000   0.0000000   0.0000000   0.0000000
 NQMom=    0.0000000   0.0000000   0.0000000   0.0000000   0.0000000   0.0000000   0.0000000   0.0000000   0.0000000   0.0000000
 NMagM=    0.0000000   0.0000000   0.0000000   0.0000000   0.0000000   0.0000000   0.0000000   0.0000000   0.0000000   0.0000000
 AtZNuc=   6.0000000   6.0000000   6.0000000   6.0000000   6.0000000   6.0000000   8.0000000   8.0000000   8.0000000   8.0000000

  Atom        11          12          13          14          15          16          17          18          19          20
 IAtWgt=           1           1           1           1           1           1           1          16          12           1
 AtmWgt=   1.0078250   1.0078250   1.0078250   1.0078250   1.0078250   1.0078250   1.0078250  15.9949146  12.0000000   1.0078250
 NucSpn=           1           1           1           1           1           1           1           0           0           1
 AtZEff=   0.0000000   0.0000000   0.0000000   0.0000000   0.0000000   0.0000000   0.0000000   0.0000000   0.0000000   0.0000000
 NQMom=    0.0000000   0.0000000   0.0000000   0.0000000   0.0000000   0.0000000   0.0000000   0.0000000   0.0000000   0.0000000
 NMagM=    2.7928460   2.7928460   2.7928460   2.7928460   2.7928460   2.7928460   2.7928460   0.0000000   0.0000000   2.7928460
 AtZNuc=   1.0000000   1.0000000   1.0000000   1.0000000   1.0000000   1.0000000   1.0000000   8.0000000   6.0000000   1.0000000

  Atom        21          22          23          24          25          26          27          28          29          30
 IAtWgt=           1           1          12           1           1           1          12           1           1           1
 AtmWgt=   1.0078250   1.0078250  12.0000000   1.0078250   1.0078250   1.0078250  12.0000000   1.0078250   1.0078250   1.0078250
 NucSpn=           1           1           0           1           1           1           0           1           1           1
 AtZEff=   0.0000000   0.0000000   0.0000000   0.0000000   0.0000000   0.0000000   0.0000000   0.0000000   0.0000000   0.0000000
 NQMom=    0.0000000   0.0000000   0.0000000   0.0000000   0.0000000   0.0000000   0.0000000   0.0000000   0.0000000   0.0000000
 NMagM=    2.7928460   2.7928460   0.0000000   2.7928460   2.7928460   2.7928460   0.0000000   2.7928460   2.7928460   2.7928460
 AtZNuc=   1.0000000   1.0000000   6.0000000   1.0000000   1.0000000   1.0000000   6.0000000   1.0000000   1.0000000   1.0000000

  Atom        31          32          33          34          35          36
 IAtWgt=          12          16          12           1           1           1
 AtmWgt=  12.0000000  15.9949146  12.0000000   1.0078250   1.0078250   1.0078250
 NucSpn=           0           0           0           1           1           1
 AtZEff=   0.0000000   0.0000000   0.0000000   0.0000000   0.0000000   0.0000000
 NQMom=    0.0000000   0.0000000   0.0000000   0.0000000   0.0000000   0.0000000
 NMagM=    0.0000000   0.0000000   0.0000000   2.7928460   2.7928460   2.7928460
 AtZNuc=   6.0000000   8.0000000   6.0000000   1.0000000   1.0000000   1.0000000
 Leave Link  101 at Tue Jan 10 12:30:01 2017, MaxMem= 13421772800 cpu:         3.4
 (Enter /share/apps//g09/l103.exe)

 GradGradGradGradGradGradGradGradGradGradGradGradGradGradGradGradGradGrad
 Berny optimization.
 Initialization pass.
                           ----------------------------
                           !    Initial Parameters    !
                           ! (Angstroms and Degrees)  !
 --------------------------                            --------------------------
 ! Name  Definition              Value          Derivative Info.                !
 --------------------------------------------------------------------------------
 ! R1    R(1,2)                  1.5379         estimate D2E/DX2                !
 ! R2    R(1,10)                 1.4146         estimate D2E/DX2                !
 ! R3    R(1,11)                 1.1024         estimate D2E/DX2                !
 ! R4    R(1,12)                 1.101          estimate D2E/DX2                !
 ! R5    R(2,3)                  1.5206         estimate D2E/DX2                !
 ! R6    R(2,7)                  1.4374         estimate D2E/DX2                !
 ! R7    R(2,13)                 1.1084         estimate D2E/DX2                !
 ! R8    R(3,4)                  1.5493         estimate D2E/DX2                !
 ! R9    R(3,9)                  1.5002         estimate D2E/DX2                !
 ! R10   R(3,14)                 1.0963         estimate D2E/DX2                !
 ! R11   R(4,5)                  1.5176         estimate D2E/DX2                !
 ! R12   R(4,8)                  1.4132         estimate D2E/DX2                !
 ! R13   R(4,15)                 1.1088         estimate D2E/DX2                !
 ! R14   R(5,6)                  1.3655         estimate D2E/DX2                !
 ! R15   R(5,18)                 1.3502         estimate D2E/DX2                !
 ! R16   R(6,7)                  1.3791         estimate D2E/DX2                !
 ! R17   R(6,17)                 1.0888         estimate D2E/DX2                !
 ! R18   R(8,27)                 1.4382         estimate D2E/DX2                !
 ! R19   R(9,31)                 1.2942         estimate D2E/DX2                !
 ! R20   R(10,19)                1.436          estimate D2E/DX2                !
 ! R21   R(16,32)                1.0275         estimate D2E/DX2                !
 ! R22   R(18,23)                1.4398         estimate D2E/DX2                !
 ! R23   R(19,20)                1.0955         estimate D2E/DX2                !
 ! R24   R(19,21)                1.102          estimate D2E/DX2                !
 ! R25   R(19,22)                1.1037         estimate D2E/DX2                !
 ! R26   R(23,24)                1.1009         estimate D2E/DX2                !
 ! R27   R(23,25)                1.1011         estimate D2E/DX2                !
 ! R28   R(23,26)                1.0935         estimate D2E/DX2                !
 ! R29   R(27,28)                1.1026         estimate D2E/DX2                !
 ! R30   R(27,29)                1.1015         estimate D2E/DX2                !
 ! R31   R(27,30)                1.0949         estimate D2E/DX2                !
 ! R32   R(31,32)                1.2852         estimate D2E/DX2                !
 ! R33   R(31,33)                1.4828         estimate D2E/DX2                !
 ! R34   R(33,34)                1.0932         estimate D2E/DX2                !
 ! R35   R(33,35)                1.0954         estimate D2E/DX2                !
 ! R36   R(33,36)                1.1016         estimate D2E/DX2                !
 ! A1    A(2,1,10)             110.3717         estimate D2E/DX2                !
 ! A2    A(2,1,11)             108.6471         estimate D2E/DX2                !
 ! A3    A(2,1,12)             109.5702         estimate D2E/DX2                !
 ! A4    A(10,1,11)            112.597          estimate D2E/DX2                !
 ! A5    A(10,1,12)            107.9251         estimate D2E/DX2                !
 ! A6    A(11,1,12)            107.6622         estimate D2E/DX2                !
 ! A7    A(1,2,3)              113.7685         estimate D2E/DX2                !
 ! A8    A(1,2,7)              107.4988         estimate D2E/DX2                !
 ! A9    A(1,2,13)             109.7312         estimate D2E/DX2                !
 ! A10   A(3,2,7)              111.8039         estimate D2E/DX2                !
 ! A11   A(3,2,13)             105.4614         estimate D2E/DX2                !
 ! A12   A(7,2,13)             108.4693         estimate D2E/DX2                !
 ! A13   A(2,3,4)              112.1153         estimate D2E/DX2                !
 ! A14   A(2,3,9)              111.3009         estimate D2E/DX2                !
 ! A15   A(2,3,14)             108.5577         estimate D2E/DX2                !
 ! A16   A(4,3,9)              112.9265         estimate D2E/DX2                !
 ! A17   A(4,3,14)             111.5325         estimate D2E/DX2                !
 ! A18   A(9,3,14)              99.6999         estimate D2E/DX2                !
 ! A19   A(3,4,5)              110.6383         estimate D2E/DX2                !
 ! A20   A(3,4,8)              112.3915         estimate D2E/DX2                !
 ! A21   A(3,4,15)             106.3572         estimate D2E/DX2                !
 ! A22   A(5,4,8)              108.7834         estimate D2E/DX2                !
 ! A23   A(5,4,15)             108.179          estimate D2E/DX2                !
 ! A24   A(8,4,15)             110.4003         estimate D2E/DX2                !
 ! A25   A(4,5,6)              122.0324         estimate D2E/DX2                !
 ! A26   A(4,5,18)             111.768          estimate D2E/DX2                !
 ! A27   A(6,5,18)             126.1872         estimate D2E/DX2                !
 ! A28   A(5,6,7)              124.3646         estimate D2E/DX2                !
 ! A29   A(5,6,17)             123.8981         estimate D2E/DX2                !
 ! A30   A(7,6,17)             111.7139         estimate D2E/DX2                !
 ! A31   A(2,7,6)              114.6411         estimate D2E/DX2                !
 ! A32   A(4,8,27)             114.1369         estimate D2E/DX2                !
 ! A33   A(3,9,31)             129.6688         estimate D2E/DX2                !
 ! A34   A(1,10,19)            114.1322         estimate D2E/DX2                !
 ! A35   A(5,18,23)            117.7629         estimate D2E/DX2                !
 ! A36   A(10,19,20)           106.2708         estimate D2E/DX2                !
 ! A37   A(10,19,21)           110.8339         estimate D2E/DX2                !
 ! A38   A(10,19,22)           112.3115         estimate D2E/DX2                !
 ! A39   A(20,19,21)           109.2062         estimate D2E/DX2                !
 ! A40   A(20,19,22)           108.9091         estimate D2E/DX2                !
 ! A41   A(21,19,22)           109.2189         estimate D2E/DX2                !
 ! A42   A(18,23,24)           110.8193         estimate D2E/DX2                !
 ! A43   A(18,23,25)           110.8296         estimate D2E/DX2                !
 ! A44   A(18,23,26)           105.3861         estimate D2E/DX2                !
 ! A45   A(24,23,25)           110.2945         estimate D2E/DX2                !
 ! A46   A(24,23,26)           109.8799         estimate D2E/DX2                !
 ! A47   A(25,23,26)           109.5168         estimate D2E/DX2                !
 ! A48   A(8,27,28)            112.0837         estimate D2E/DX2                !
 ! A49   A(8,27,29)            110.6415         estimate D2E/DX2                !
 ! A50   A(8,27,30)            105.9342         estimate D2E/DX2                !
 ! A51   A(28,27,29)           109.7243         estimate D2E/DX2                !
 ! A52   A(28,27,30)           109.1074         estimate D2E/DX2                !
 ! A53   A(29,27,30)           109.2436         estimate D2E/DX2                !
 ! A54   A(9,31,32)            127.4245         estimate D2E/DX2                !
 ! A55   A(9,31,33)            115.4404         estimate D2E/DX2                !
 ! A56   A(32,31,33)           117.1351         estimate D2E/DX2                !
 ! A57   A(16,32,31)           115.2456         estimate D2E/DX2                !
 ! A58   A(31,33,34)           110.9681         estimate D2E/DX2                !
 ! A59   A(31,33,35)           110.0584         estimate D2E/DX2                !
 ! A60   A(31,33,36)           107.6557         estimate D2E/DX2                !
 ! A61   A(34,33,35)           111.7383         estimate D2E/DX2                !
 ! A62   A(34,33,36)           108.7557         estimate D2E/DX2                !
 ! A63   A(35,33,36)           107.5068         estimate D2E/DX2                !
 ! D1    D(10,1,2,3)           -54.1298         estimate D2E/DX2                !
 ! D2    D(10,1,2,7)          -178.49           estimate D2E/DX2                !
 ! D3    D(10,1,2,13)           63.7372         estimate D2E/DX2                !
 ! D4    D(11,1,2,3)          -178.0405         estimate D2E/DX2                !
 ! D5    D(11,1,2,7)            57.5992         estimate D2E/DX2                !
 ! D6    D(11,1,2,13)          -60.1735         estimate D2E/DX2                !
 ! D7    D(12,1,2,3)            64.5847         estimate D2E/DX2                !
 ! D8    D(12,1,2,7)           -59.7756         estimate D2E/DX2                !
 ! D9    D(12,1,2,13)         -177.5483         estimate D2E/DX2                !
 ! D10   D(2,1,10,19)          -95.5769         estimate D2E/DX2                !
 ! D11   D(11,1,10,19)          26.0228         estimate D2E/DX2                !
 ! D12   D(12,1,10,19)         144.7101         estimate D2E/DX2                !
 ! D13   D(1,2,3,4)           -179.1418         estimate D2E/DX2                !
 ! D14   D(1,2,3,9)            -51.5696         estimate D2E/DX2                !
 ! D15   D(1,2,3,14)            57.1935         estimate D2E/DX2                !
 ! D16   D(7,2,3,4)            -57.1331         estimate D2E/DX2                !
 ! D17   D(7,2,3,9)             70.4391         estimate D2E/DX2                !
 ! D18   D(7,2,3,14)           179.2023         estimate D2E/DX2                !
 ! D19   D(13,2,3,4)            60.5559         estimate D2E/DX2                !
 ! D20   D(13,2,3,9)          -171.8719         estimate D2E/DX2                !
 ! D21   D(13,2,3,14)          -63.1088         estimate D2E/DX2                !
 ! D22   D(1,2,7,6)            174.3715         estimate D2E/DX2                !
 ! D23   D(3,2,7,6)             48.8305         estimate D2E/DX2                !
 ! D24   D(13,2,7,6)           -67.04           estimate D2E/DX2                !
 ! D25   D(2,3,4,5)             34.4218         estimate D2E/DX2                !
 ! D26   D(2,3,4,8)            156.2452         estimate D2E/DX2                !
 ! D27   D(2,3,4,15)           -82.8357         estimate D2E/DX2                !
 ! D28   D(9,3,4,5)            -92.2781         estimate D2E/DX2                !
 ! D29   D(9,3,4,8)             29.5453         estimate D2E/DX2                !
 ! D30   D(9,3,4,15)           150.4644         estimate D2E/DX2                !
 ! D31   D(14,3,4,5)           156.4035         estimate D2E/DX2                !
 ! D32   D(14,3,4,8)           -81.7731         estimate D2E/DX2                !
 ! D33   D(14,3,4,15)           39.146          estimate D2E/DX2                !
 ! D34   D(2,3,9,31)           -83.5187         estimate D2E/DX2                !
 ! D35   D(4,3,9,31)            43.6128         estimate D2E/DX2                !
 ! D36   D(14,3,9,31)          162.0755         estimate D2E/DX2                !
 ! D37   D(3,4,5,6)             -6.0463         estimate D2E/DX2                !
 ! D38   D(3,4,5,18)           175.1631         estimate D2E/DX2                !
 ! D39   D(8,4,5,6)           -129.9674         estimate D2E/DX2                !
 ! D40   D(8,4,5,18)            51.242          estimate D2E/DX2                !
 ! D41   D(15,4,5,6)           110.0848         estimate D2E/DX2                !
 ! D42   D(15,4,5,18)          -68.7058         estimate D2E/DX2                !
 ! D43   D(3,4,8,27)            83.439          estimate D2E/DX2                !
 ! D44   D(5,4,8,27)          -153.6882         estimate D2E/DX2                !
 ! D45   D(15,4,8,27)          -35.1285         estimate D2E/DX2                !
 ! D46   D(4,5,6,7)             -2.5537         estimate D2E/DX2                !
 ! D47   D(4,5,6,17)           179.3526         estimate D2E/DX2                !
 ! D48   D(18,5,6,7)           176.0546         estimate D2E/DX2                !
 ! D49   D(18,5,6,17)           -2.039          estimate D2E/DX2                !
 ! D50   D(4,5,18,23)          178.6144         estimate D2E/DX2                !
 ! D51   D(6,5,18,23)           -0.1153         estimate D2E/DX2                !
 ! D52   D(5,6,7,2)            -19.5096         estimate D2E/DX2                !
 ! D53   D(17,6,7,2)           158.7874         estimate D2E/DX2                !
 ! D54   D(4,8,27,28)          -67.3234         estimate D2E/DX2                !
 ! D55   D(4,8,27,29)           55.4992         estimate D2E/DX2                !
 ! D56   D(4,8,27,30)          173.7815         estimate D2E/DX2                !
 ! D57   D(3,9,31,32)            5.5602         estimate D2E/DX2                !
 ! D58   D(3,9,31,33)         -174.4596         estimate D2E/DX2                !
 ! D59   D(1,10,19,20)        -179.3458         estimate D2E/DX2                !
 ! D60   D(1,10,19,21)         -60.8081         estimate D2E/DX2                !
 ! D61   D(1,10,19,22)          61.6627         estimate D2E/DX2                !
 ! D62   D(5,18,23,24)         -59.0253         estimate D2E/DX2                !
 ! D63   D(5,18,23,25)          63.7735         estimate D2E/DX2                !
 ! D64   D(5,18,23,26)        -177.8393         estimate D2E/DX2                !
 ! D65   D(9,31,32,16)          -0.2404         estimate D2E/DX2                !
 ! D66   D(33,31,32,16)        179.7797         estimate D2E/DX2                !
 ! D67   D(9,31,33,34)         -19.9414         estimate D2E/DX2                !
 ! D68   D(9,31,33,35)        -144.1474         estimate D2E/DX2                !
 ! D69   D(9,31,33,36)          98.9619         estimate D2E/DX2                !
 ! D70   D(32,31,33,34)        160.041          estimate D2E/DX2                !
 ! D71   D(32,31,33,35)         35.835          estimate D2E/DX2                !
 ! D72   D(32,31,33,36)        -81.0557         estimate D2E/DX2                !
 --------------------------------------------------------------------------------
 Trust Radius=3.00D-01 FncErr=1.00D-07 GrdErr=1.00D-06
 Number of steps in this run=    216 maximum allowed number of steps=    216.
 GradGradGradGradGradGradGradGradGradGradGradGradGradGradGradGradGradGrad

 Leave Link  103 at Tue Jan 10 12:30:02 2017, MaxMem= 13421772800 cpu:         0.2
 (Enter /share/apps//g09/l202.exe)
                          Input orientation:                          
 ---------------------------------------------------------------------
 Center     Atomic      Atomic             Coordinates (Angstroms)
 Number     Number       Type             X           Y           Z
 ---------------------------------------------------------------------
      1          6           0       -1.879050    2.293420    0.176160
      2          6           0       -0.789930    1.287710    0.585600
      3          6           0        0.601470    1.894390    0.676760
      4          6           0        1.670810    0.844710    1.070640
      5          6           0        1.334590   -0.510430    0.476040
      6          6           0        0.164940   -0.738830   -0.190450
      7          8           0       -0.836310    0.196250   -0.348550
      8          8           0        2.968850    1.215630    0.652680
      9          8           0        0.951930    2.644580   -0.574250
     10          8           0       -1.863970    3.414160    1.039210
     11          1           0       -2.852520    1.776030    0.170710
     12          1           0       -1.685050    2.650950   -0.846920
     13          1           0       -1.006960    0.892700    1.598180
     14          1           0        0.573110    2.726900    1.389560
     15          1           0        1.630650    0.757390    2.175230
     16          1           0        1.379370    0.284560   -1.320610
     17          1           0       -0.102620   -1.694980   -0.637310
     18          8           0        2.305020   -1.417670    0.717060
     19          6           0       -2.802930    3.333500    2.122640
     20          1           0       -2.691620    4.260960    2.694960
     21          1           0       -3.834900    3.263720    1.742530
     22          1           0       -2.602150    2.476240    2.788170
     23          6           0        2.103630   -2.759290    0.234860
     24          1           0        1.189490   -3.196630    0.665100
     25          1           0        2.054290   -2.776770   -0.865000
     26          1           0        2.978820   -3.322590    0.570290
     27          6           0        3.642300    2.113230    1.552240
     28          1           0        3.162330    3.105360    1.584350
     29          1           0        3.683620    1.687240    2.567160
     30          1           0        4.660480    2.220050    1.163980
     31          6           0        1.430050    2.205940   -1.694100
     32          8           0        1.629600    0.982200   -2.032220
     33          6           0        1.781670    3.248270   -2.688430
     34          1           0        1.268010    4.187870   -2.468500
     35          1           0        1.560290    2.892100   -3.700330
     36          1           0        2.868690    3.415930   -2.626540
 ---------------------------------------------------------------------
                    Distance matrix (angstroms):
                    1          2          3          4          5
     1  C    0.000000
     2  C    1.537945   0.000000
     3  C    2.561797   1.520646   0.000000
     4  C    3.937050   2.546911   1.549341   0.000000
     5  C    4.275393   2.785480   2.522085   1.517563   0.000000
     6  C    3.675165   2.370843   2.806503   2.523012   1.365451
     7  O    2.400156   1.437384   2.449929   2.953007   2.427376
     8  O    4.989072   3.760069   2.462881   1.413216   2.383546
     9  O    2.949725   2.494078   1.500211   2.542043   3.347182
    10  O    1.414617   2.425101   2.918812   4.370095   5.094149
    11  H    1.102436   2.159830   3.492870   4.705077   4.780483
    12  H    1.100980   2.170663   2.849940   4.266302   4.567578
    13  H    2.178233   1.108356   2.106999   2.729662   2.951411
    14  H    2.770078   2.139041   1.096340   2.202111   3.448866
    15  H    4.321303   2.944040   2.144153   1.108764   2.140623
    16  H    4.110126   3.057092   2.680703   2.473213   1.965188
    17  H    4.441258   3.296110   3.886657   3.537255   2.169857
    18  O    5.618826   4.112794   3.724708   2.376048   1.350152
    19  C    2.392510   3.255751   3.968822   5.226388   5.882700
    20  H    3.297853   4.111696   4.529705   5.774078   6.625718
    21  H    2.687070   3.809848   4.763645   6.051106   6.524709
    22  H    2.716412   3.089993   3.880694   4.885692   5.455645
    23  C    6.433900   4.987376   4.910041   3.724873   2.388925
    24  H    6.308379   4.902421   5.124879   4.090056   2.696751
    25  H    6.500923   5.168542   5.129078   4.124182   2.729955
    26  H    7.435981   5.954710   5.734109   4.396320   3.258929
    27  C    5.693098   4.610915   3.171908   2.393294   3.656135
    28  H    5.296957   4.463375   2.974588   2.756641   4.200348
    29  H    6.085034   4.909058   3.621626   2.645909   3.836728
    30  H    6.614123   5.559744   4.101097   3.292172   4.357789
    31  C    3.802061   3.311871   2.530728   3.091068   3.478115
    32  O    4.348202   3.577771   3.037715   3.106178   2.933657
    33  C    4.745365   4.601760   3.814494   4.463182   4.933718
    34  H    4.526274   4.687598   3.949302   4.885128   5.545157
    35  H    5.216766   5.144589   4.590608   5.192897   5.391680
    36  H    5.626383   5.313442   4.285693   4.659960   5.234097
                    6          7          8          9         10
     6  C    0.000000
     7  O    1.379084   0.000000
     8  O    3.520326   4.064584   0.000000
     9  O    3.494870   3.040241   2.759569   0.000000
    10  O    4.782872   3.651973   5.323447   3.335386   0.000000
    11  H    3.944619   2.613511   5.868108   3.972806   2.101189
    12  H    3.917145   2.644671   5.095854   2.651048   2.042545
    13  H    2.689691   2.074590   4.099429   3.409661   2.721153
    14  H    3.830707   3.378118   2.926858   2.001707   2.556253
    15  H    3.159655   3.573547   2.078202   3.403202   4.534461
    16  H    1.949212   2.421144   2.699484   2.511862   5.087475
    17  H    1.088804   2.049008   4.423760   4.466300   5.658302
    18  O    2.421640   3.688932   2.716447   4.472159   6.389901
    19  C    5.544593   4.451597   6.321361   4.674056   1.435957
    20  H    6.440763   5.406200   6.744321   5.155179   2.035579
    21  H    5.979593   4.772162   7.188425   5.353928   2.098060
    22  H    5.183207   4.260934   6.097991   4.895477   2.117419
    23  C    2.832255   4.209374   4.089397   5.584164   7.382433
    24  H    2.796864   4.079582   4.757553   5.975965   7.291510
    25  H    2.859696   4.178653   4.367955   5.539925   7.570099
    26  H    3.895184   5.270837   4.538979   6.405105   8.310012
    27  C    4.823199   5.229318   1.438203   3.470214   5.681076
    28  H    5.187683   5.309251   2.115780   3.123738   5.065198
    29  H    5.086387   5.581593   2.097271   4.271661   6.007715
    30  H    5.549715   6.049646   2.032707   4.117646   6.633997
    31  C    3.540217   3.314475   2.975903   1.294244   4.447623
    32  O    2.915354   3.087584   3.009446   2.312665   5.249109
    33  C    4.975006   4.652277   4.087057   2.350036   5.216657
    34  H    5.538831   4.985517   4.633447   2.463703   4.765706
    35  H    5.239266   4.923995   4.872709   3.194330   5.870378
    36  H    5.523299   5.411340   3.950270   2.912189   5.986301
                   11         12         13         14         15
    11  H    0.000000
    12  H    1.778775   0.000000
    13  H    2.494801   3.087031   0.000000
    14  H    3.758283   3.179135   2.429904   0.000000
    15  H    5.015430   4.869582   2.703383   2.369523   0.000000
    16  H    4.728362   3.900622   3.818866   3.736322   3.536610
    17  H    4.501417   4.629809   3.537136   4.910991   4.114453
    18  O    6.090849   5.909345   4.133206   4.541941   2.704056
    19  C    2.497639   3.245584   3.075398   3.507566   5.127937
    20  H    3.545787   4.018735   3.922522   3.836127   5.588125
    21  H    2.376744   3.420905   3.693212   4.454584   6.028363
    22  H    2.721043   3.753062   2.543287   3.478680   4.609418
    23  C    6.718383   6.692910   4.987128   5.811549   4.044228
    24  H    6.427256   6.689049   4.734728   5.999414   4.255513
    25  H    6.773291   6.591141   5.376199   6.129218   4.681106
    26  H    7.756295   7.709951   5.891661   6.561629   4.586898
    27  C    6.648685   5.867348   4.807018   3.134164   2.504627
    28  H    6.320120   5.441935   4.720067   2.623973   2.864986
    29  H    6.962182   6.434850   4.855075   3.484667   2.287557
    30  H    7.591371   6.670468   5.836974   4.124849   3.513100
    31  C    4.690708   3.258772   4.301479   3.242639   4.136454
    32  O    5.056923   3.895711   4.487679   3.983557   4.213452
    33  C    5.640735   3.970655   5.630292   4.285143   5.466487
    34  H    5.455380   3.703000   5.707146   4.183533   5.784802
    35  H    5.975237   4.328087   6.217924   5.187369   6.251731
    36  H    6.576178   4.948615   6.263834   4.676912   5.626506
                   16         17         18         19         20
    16  H    0.000000
    17  H    2.565496   0.000000
    18  O    2.811852   2.776319   0.000000
    19  C    6.216401   6.339922   7.116209   0.000000
    20  H    6.964878   7.299326   7.818270   1.095501   0.000000
    21  H    6.741427   6.646974   7.788814   1.101960   1.791284
    22  H    6.126829   5.948163   6.597905   1.103693   1.789391
    23  C    3.494147   2.600188   1.439798   8.047368   8.850448
    24  H    4.012204   2.370817   2.100430   7.791434   8.648641
    25  H    3.167781   2.423711   2.100698   8.357869   9.204706
    26  H    4.375531   3.688182   2.025899   8.952204   9.704553
    27  C    4.088784   5.772436   3.866924   6.584482   6.785064
    28  H    4.424325   6.216023   4.684546   5.993841   6.069398
    29  H    4.732001   6.003637   3.868317   6.706944   6.876340
    30  H    4.548076   6.423335   4.356712   7.606661   7.782197
    31  C    1.958000   4.322390   4.439574   5.810079   6.362006
    32  O    1.027475   3.480467   3.711349   6.514507   7.195098
    33  C    3.288823   5.673920   5.800194   6.646218   7.072252
    34  H    4.070121   6.311878   6.530334   6.195246   6.507329
    35  H    3.534836   5.760960   6.216275   7.289685   7.800785
    36  H    3.705267   6.237557   5.904327   7.397890   7.742705
                   21         22         23         24         25
    21  H    0.000000
    22  H    1.798099   0.000000
    23  C    8.591615   7.488293   0.000000
    24  H    8.254785   7.146007   1.100920   0.000000
    25  H    8.830022   7.913419   1.101105   1.807033   0.000000
    26  H    9.548843   8.348212   1.093516   1.796262   1.792410
    27  C    7.567586   6.375928   5.276784   5.915903   5.681278
    28  H    7.000809   5.922348   6.110326   6.667248   6.467343
    29  H    7.726153   6.338949   5.263803   5.804369   5.861896
    30  H    8.578779   7.446437   5.674026   6.452680   5.989758
    31  C    6.375659   6.035101   5.369181   5.900123   5.089645
    32  O    7.022452   6.586048   4.400353   4.993181   3.958866
    33  C    7.153985   7.057411   6.688801   7.289278   6.300819
    34  H    6.680308   6.748362   7.501296   8.022247   7.189969
    35  H    7.672738   7.720070   6.907905   7.501140   6.357611
    36  H    8.003128   7.754495   6.848815   7.574995   6.489669
                   26         27         28         29         30
    26  H    0.000000
    27  C    5.563503   0.000000
    28  H    6.510033   1.102599   0.000000
    29  H    5.438992   1.101471   1.802421   0.000000
    30  H    5.822483   1.094919   1.790234   1.790826   0.000000
    31  C    6.171774   3.929551   3.815493   4.848295   4.313293
    32  O    5.208135   4.263630   4.465047   5.086293   4.575391
    33  C    7.431596   4.767970   4.492582   5.803056   4.917911
    34  H    8.280587   5.109573   4.602811   6.119330   5.345660
    35  H    7.672861   5.703586   5.526288   6.726191   5.807266
    36  H    7.459189   4.444964   4.232526   5.534167   4.359895
                   31         32         33         34         35
    31  C    0.000000
    32  O    1.285179   0.000000
    33  C    1.482829   2.364066   0.000000
    34  H    2.134010   3.255366   1.093190   0.000000
    35  H    2.124320   2.536752   1.095357   1.811588   0.000000
    36  H    2.098382   2.794924   1.101614   1.784109   1.771816
                   36
    36  H    0.000000
 Stoichiometry    C11H19O6(1+)
 Framework group  C1[X(C11H19O6)]
 Deg. of freedom   102
 Full point group                 C1      NOp   1
 Largest Abelian subgroup         C1      NOp   1
 Largest concise Abelian subgroup C1      NOp   1
                         Standard orientation:                         
 ---------------------------------------------------------------------
 Center     Atomic      Atomic             Coordinates (Angstroms)
 Number     Number       Type             X           Y           Z
 ---------------------------------------------------------------------
      1          6           0       -2.658419   -0.637491   -0.709741
      2          6           0       -1.240741   -0.971295   -0.215737
      3          6           0       -0.613126    0.124395    0.631568
      4          6           0        0.820594   -0.242167    1.090411
      5          6           0        1.533343   -1.051609    0.022802
      6          6           0        0.896586   -1.481073   -1.106161
      7          8           0       -0.441438   -1.277028   -1.370602
      8          8           0        1.597974    0.899130    1.390914
      9          8           0       -0.683750    1.454691   -0.058330
     10          8           0       -3.491144   -0.291987    0.380367
     11          1           0       -3.044101   -1.497571   -1.281473
     12          1           0       -2.617542    0.225771   -1.391844
     13          1           0       -1.272892   -1.867080    0.436175
     14          1           0       -1.270309    0.324320    1.486028
     15          1           0        0.706983   -0.880225    1.990039
     16          1           0        1.275257    0.425804   -1.247083
     17          1           0        1.380372   -2.054182   -1.895459
     18          8           0        2.819603   -1.294288    0.353791
     19          6           0       -4.275971   -1.382013    0.888169
     20          1           0       -4.873368   -0.973173    1.710415
     21          1           0       -4.950557   -1.774926    0.110436
     22          1           0       -3.649924   -2.204370    1.275378
     23          6           0        3.609604   -2.080993   -0.557259
     24          1           0        3.160135   -3.074718   -0.707299
     25          1           0        3.724566   -1.564113   -1.522687
     26          1           0        4.587654   -2.183611   -0.079069
     27          6           0        1.397157    1.414596    2.718467
     28          1           0        0.385840    1.833052    2.852093
     29          1           0        1.577450    0.630568    3.470818
     30          1           0        2.135210    2.213318    2.845627
     31          6           0        0.102474    1.965420   -0.950560
     32          8           0        1.095586    1.395777   -1.534443
     33          6           0       -0.191323    3.368347   -1.330376
     34          1           0       -1.217293    3.638362   -1.066669
     35          1           0        0.006044    3.517888   -2.397377
     36          1           0        0.500762    4.017829   -0.771140
 ---------------------------------------------------------------------
 Rotational constants (GHZ):      0.5653451      0.3553927      0.3073793
 Leave Link  202 at Tue Jan 10 12:30:02 2017, MaxMem= 13421772800 cpu:         0.6
 (Enter /share/apps//g09/l301.exe)
 Standard basis: 6-311+G(d,p) (5D, 7F)
 Ernie: Thresh=  0.10000D-02 Tol=  0.10000D-05 Strict=F.
 There are   505 symmetry adapted cartesian basis functions of A   symmetry.
 There are   488 symmetry adapted basis functions of A   symmetry.
   488 basis functions,   764 primitive gaussians,   505 cartesian basis functions
    66 alpha electrons       66 beta electrons
       nuclear repulsion energy      1411.1485659453 Hartrees.
 IExCor= 1009 DFT=T Ex+Corr=PBE1PBE ExCW=0 ScaHFX=  0.250000
 ScaDFX=  0.750000  0.750000  1.000000  1.000000 ScalE2=  1.000000  1.000000
 IRadAn=      0 IRanWt=     -1 IRanGd=            0 ICorTp=0 IEmpDi=131
 NAtoms=   36 NActive=   36 NUniq=   36 SFac= 1.00D+00 NAtFMM=   60 NAOKFM=F Big=F
 Integral buffers will be    131072 words long.
 Raffenetti 2 integral format.
 Two-electron integral symmetry is turned on.
 R6Disp:  Grimme-D3 Dispersion energy=       -0.0246858467 Hartrees.
 Nuclear repulsion after empirical dispersion term =     1411.1238800987 Hartrees.
 Leave Link  301 at Tue Jan 10 12:30:02 2017, MaxMem= 13421772800 cpu:         1.6
 (Enter /share/apps//g09/l302.exe)
 NPDir=0 NMtPBC=     1 NCelOv=     1 NCel=       1 NClECP=     1 NCelD=      1
         NCelK=      1 NCelE2=     1 NClLst=     1 CellRange=     0.0.
 One-electron integrals computed using PRISM.
 NBasis=   488 RedAO= T EigKep=  1.42D-06  NBF=   488
 NBsUse=   488 1.00D-06 EigRej= -1.00D+00 NBFU=   488
 Precomputing XC quadrature grid using
 IXCGrd= 4 IRadAn=           0 IRanWt=          -1 IRanGd=           0 AccXCQ= 0.00D+00.
 Generated NRdTot=       0 NPtTot=           0 NUsed=           0 NTot=          32
 NSgBfM=   502   502   502   503   503 MxSgAt=    36 MxSgA2=    36.
 Leave Link  302 at Tue Jan 10 12:30:03 2017, MaxMem= 13421772800 cpu:        12.5
 (Enter /share/apps//g09/l303.exe)
 DipDrv:  MaxL=1.
 Leave Link  303 at Tue Jan 10 12:30:04 2017, MaxMem= 13421772800 cpu:         8.6
 (Enter /share/apps//g09/l401.exe)
 ExpMin= 4.38D-02 ExpMax= 8.59D+03 ExpMxC= 1.30D+03 IAcc=2 IRadAn=         4 AccDes= 0.00D+00
 Harris functional with IExCor= 1009 and IRadAn=       4 diagonalized for initial guess.
 HarFok:  IExCor= 1009 AccDes= 0.00D+00 IRadAn=         4 IDoV= 1 UseB2=F ITyADJ=14
 ICtDFT=  3500011 ScaDFX=  1.000000  1.000000  1.000000  1.000000
 FoFCou: FMM=F IPFlag=           0 FMFlag=      100000 FMFlg1=           0
         NFxFlg=           0 DoJE=T BraDBF=F KetDBF=T FulRan=T
         wScrn=  0.000000 ICntrl=     500 IOpCl=  0 I1Cent=   200000004 NGrid=           0
         NMat0=    1 NMatS0=      1 NMatT0=    0 NMatD0=    1 NMtDS0=    0 NMtDT0=    0
 Petite list used in FoFCou.
 Harris En= -881.097798795792    
 JPrj=0 DoOrth=F DoCkMO=F.
 Leave Link  401 at Tue Jan 10 12:30:05 2017, MaxMem= 13421772800 cpu:        23.5
 (Enter /share/apps//g09/l502.exe)
 Closed shell SCF:
 Using DIIS extrapolation, IDIIS=  1040.
 Integral symmetry usage will be decided dynamically.
 Keep R1 ints in memory in canonical form, NReq=7183787934.
 IVT=      797493 IEndB=      797493 NGot= 13421772800 MDV=  6302761722
 LenX=  6302761722 LenY=  6302506192
 Requested convergence on RMS density matrix=1.00D-08 within 128 cycles.
 Requested convergence on MAX density matrix=1.00D-06.
 Requested convergence on             energy=1.00D-06.
 No special actions if energy rises.
 FoFCou: FMM=F IPFlag=           0 FMFlag=           0 FMFlg1=           0
         NFxFlg=           0 DoJE=F BraDBF=F KetDBF=F FulRan=T
         wScrn=  0.000000 ICntrl=     600 IOpCl=  0 I1Cent=           0 NGrid=           0
         NMat0=    1 NMatS0= 119316 NMatT0=    0 NMatD0=    1 NMtDS0=    0 NMtDT0=    0
 Symmetry not used in FoFCou.

 Cycle   1  Pass 1  IDiag  1:
 E= -880.628567483539    
 DIIS: error= 1.65D-02 at cycle   1 NSaved=   1.
 NSaved= 1 IEnMin= 1 EnMin= -880.628567483539     IErMin= 1 ErrMin= 1.65D-02
 ErrMax= 1.65D-02  0.00D+00 EMaxC= 1.00D-01 BMatC= 3.76D-01 BMatP= 3.76D-01
 IDIUse=3 WtCom= 8.35D-01 WtEn= 1.65D-01
 Coeff-Com:  0.100D+01
 Coeff-En:   0.100D+01
 Coeff:      0.100D+01
 Gap=     0.120 Goal=   None    Shift=    0.000
 GapD=    0.120 DampG=1.000 DampE=0.500 DampFc=0.5000 IDamp=-1.
 Damping current iteration by 5.00D-01
 RMSDP=1.23D-02 MaxDP=1.79D+00              OVMax= 1.13D-01

 Cycle   2  Pass 1  IDiag  1:
 E= -880.757623094221     Delta-E=       -0.129055610681 Rises=F Damp=T
 DIIS: error= 3.00D-03 at cycle   2 NSaved=   2.
 NSaved= 2 IEnMin= 2 EnMin= -880.757623094221     IErMin= 2 ErrMin= 3.00D-03
 ErrMax= 3.00D-03  0.00D+00 EMaxC= 1.00D-01 BMatC= 2.95D-02 BMatP= 3.76D-01
 IDIUse=3 WtCom= 9.70D-01 WtEn= 3.00D-02
 Coeff-Com: -0.172D-01 0.102D+01
 Coeff-En:   0.196D-01 0.980D+00
 Coeff:     -0.161D-01 0.102D+01
 Gap=     0.215 Goal=   None    Shift=    0.000
 RMSDP=5.00D-03 MaxDP=1.10D+00 DE=-1.29D-01 OVMax= 8.25D-02

 Cycle   3  Pass 1  IDiag  1:
 E= -880.888937723989     Delta-E=       -0.131314629768 Rises=F Damp=F
 DIIS: error= 5.17D-03 at cycle   3 NSaved=   3.
 NSaved= 3 IEnMin= 3 EnMin= -880.888937723989     IErMin= 2 ErrMin= 3.00D-03
 ErrMax= 5.17D-03  0.00D+00 EMaxC= 1.00D-01 BMatC= 2.41D-02 BMatP= 2.95D-02
 IDIUse=3 WtCom= 9.48D-01 WtEn= 5.17D-02
 Coeff-Com: -0.926D-01 0.509D+00 0.584D+00
 Coeff-En:   0.000D+00 0.000D+00 0.100D+01
 Coeff:     -0.878D-01 0.482D+00 0.605D+00
 Gap=     0.179 Goal=   None    Shift=    0.000
 RMSDP=1.41D-03 MaxDP=1.35D-01 DE=-1.31D-01 OVMax= 3.26D-02

 Cycle   4  Pass 1  IDiag  1:
 E= -880.902901545879     Delta-E=       -0.013963821890 Rises=F Damp=F
 DIIS: error= 3.52D-03 at cycle   4 NSaved=   4.
 NSaved= 4 IEnMin= 4 EnMin= -880.902901545879     IErMin= 2 ErrMin= 3.00D-03
 ErrMax= 3.52D-03  0.00D+00 EMaxC= 1.00D-01 BMatC= 5.33D-03 BMatP= 2.41D-02
 IDIUse=3 WtCom= 9.65D-01 WtEn= 3.52D-02
 Coeff-Com: -0.481D-01 0.162D+00 0.362D+00 0.524D+00
 Coeff-En:   0.000D+00 0.000D+00 0.183D+00 0.817D+00
 Coeff:     -0.464D-01 0.156D+00 0.356D+00 0.534D+00
 Gap=     0.175 Goal=   None    Shift=    0.000
 RMSDP=5.73D-04 MaxDP=6.89D-02 DE=-1.40D-02 OVMax= 1.52D-02

 Cycle   5  Pass 1  IDiag  1:
 E= -880.906746585496     Delta-E=       -0.003845039617 Rises=F Damp=F
 DIIS: error= 9.55D-04 at cycle   5 NSaved=   5.
 NSaved= 5 IEnMin= 5 EnMin= -880.906746585496     IErMin= 5 ErrMin= 9.55D-04
 ErrMax= 9.55D-04  0.00D+00 EMaxC= 1.00D-01 BMatC= 3.58D-04 BMatP= 5.33D-03
 IDIUse=3 WtCom= 9.90D-01 WtEn= 9.55D-03
 Coeff-Com: -0.188D-01 0.512D-01 0.152D+00 0.295D+00 0.521D+00
 Coeff-En:   0.000D+00 0.000D+00 0.000D+00 0.000D+00 0.100D+01
 Coeff:     -0.186D-01 0.507D-01 0.151D+00 0.292D+00 0.525D+00
 Gap=     0.176 Goal=   None    Shift=    0.000
 RMSDP=1.40D-04 MaxDP=2.04D-02 DE=-3.85D-03 OVMax= 4.59D-03

 Cycle   6  Pass 1  IDiag  1:
 E= -880.906976754729     Delta-E=       -0.000230169233 Rises=F Damp=F
 DIIS: error= 2.67D-04 at cycle   6 NSaved=   6.
 NSaved= 6 IEnMin= 6 EnMin= -880.906976754729     IErMin= 6 ErrMin= 2.67D-04
 ErrMax= 2.67D-04  0.00D+00 EMaxC= 1.00D-01 BMatC= 5.11D-05 BMatP= 3.58D-04
 IDIUse=3 WtCom= 9.97D-01 WtEn= 2.67D-03
 Coeff-Com: -0.569D-02 0.102D-01 0.472D-01 0.115D+00 0.325D+00 0.509D+00
 Coeff-En:   0.000D+00 0.000D+00 0.000D+00 0.000D+00 0.104D+00 0.896D+00
 Coeff:     -0.567D-02 0.102D-01 0.471D-01 0.114D+00 0.324D+00 0.510D+00
 Gap=     0.177 Goal=   None    Shift=    0.000
 RMSDP=5.47D-05 MaxDP=8.80D-03 DE=-2.30D-04 OVMax= 1.27D-03

 Cycle   7  Pass 1  IDiag  1:
 E= -880.907013967337     Delta-E=       -0.000037212608 Rises=F Damp=F
 DIIS: error= 3.03D-05 at cycle   7 NSaved=   7.
 NSaved= 7 IEnMin= 7 EnMin= -880.907013967337     IErMin= 7 ErrMin= 3.03D-05
 ErrMax= 3.03D-05  0.00D+00 EMaxC= 1.00D-01 BMatC= 9.42D-07 BMatP= 5.11D-05
 IDIUse=1 WtCom= 1.00D+00 WtEn= 0.00D+00
 Coeff-Com: -0.162D-02 0.238D-02 0.135D-01 0.372D-01 0.120D+00 0.221D+00
 Coeff-Com:  0.608D+00
 Coeff:     -0.162D-02 0.238D-02 0.135D-01 0.372D-01 0.120D+00 0.221D+00
 Coeff:      0.608D+00
 Gap=     0.177 Goal=   None    Shift=    0.000
 RMSDP=1.54D-05 MaxDP=2.78D-03 DE=-3.72D-05 OVMax= 2.45D-04

 Cycle   8  Pass 1  IDiag  1:
 E= -880.907014733809     Delta-E=       -0.000000766472 Rises=F Damp=F
 DIIS: error= 1.00D-05 at cycle   8 NSaved=   8.
 NSaved= 8 IEnMin= 8 EnMin= -880.907014733809     IErMin= 8 ErrMin= 1.00D-05
 ErrMax= 1.00D-05  0.00D+00 EMaxC= 1.00D-01 BMatC= 1.01D-07 BMatP= 9.42D-07
 IDIUse=1 WtCom= 1.00D+00 WtEn= 0.00D+00
 Coeff-Com: -0.944D-04-0.572D-04 0.575D-03 0.356D-02 0.156D-01 0.357D-01
 Coeff-Com:  0.264D+00 0.681D+00
 Coeff:     -0.944D-04-0.572D-04 0.575D-03 0.356D-02 0.156D-01 0.357D-01
 Coeff:      0.264D+00 0.681D+00
 Gap=     0.177 Goal=   None    Shift=    0.000
 RMSDP=7.82D-06 MaxDP=1.65D-03 DE=-7.66D-07 OVMax= 1.18D-04

 Cycle   9  Pass 1  IDiag  1:
 E= -880.907014796681     Delta-E=       -0.000000062872 Rises=F Damp=F
 DIIS: error= 5.60D-06 at cycle   9 NSaved=   9.
 NSaved= 9 IEnMin= 9 EnMin= -880.907014796681     IErMin= 9 ErrMin= 5.60D-06
 ErrMax= 5.60D-06  0.00D+00 EMaxC= 1.00D-01 BMatC= 2.77D-08 BMatP= 1.01D-07
 IDIUse=1 WtCom= 1.00D+00 WtEn= 0.00D+00
 Coeff-Com:  0.682D-04-0.219D-03-0.757D-03-0.812D-03-0.220D-03 0.279D-02
 Coeff-Com:  0.109D+00 0.410D+00 0.480D+00
 Coeff:      0.682D-04-0.219D-03-0.757D-03-0.812D-03-0.220D-03 0.279D-02
 Coeff:      0.109D+00 0.410D+00 0.480D+00
 Gap=     0.177 Goal=   None    Shift=    0.000
 RMSDP=1.43D-06 MaxDP=1.83D-04 DE=-6.29D-08 OVMax= 5.91D-05

 Cycle  10  Pass 1  IDiag  1:
 E= -880.907014816351     Delta-E=       -0.000000019670 Rises=F Damp=F
 DIIS: error= 1.33D-06 at cycle  10 NSaved=  10.
 NSaved=10 IEnMin=10 EnMin= -880.907014816351     IErMin=10 ErrMin= 1.33D-06
 ErrMax= 1.33D-06  0.00D+00 EMaxC= 1.00D-01 BMatC= 1.84D-09 BMatP= 2.77D-08
 IDIUse=1 WtCom= 1.00D+00 WtEn= 0.00D+00
 Coeff-Com:  0.481D-04-0.108D-03-0.512D-03-0.916D-03-0.216D-02-0.328D-02
 Coeff-Com:  0.255D-01 0.129D+00 0.251D+00 0.602D+00
 Coeff:      0.481D-04-0.108D-03-0.512D-03-0.916D-03-0.216D-02-0.328D-02
 Coeff:      0.255D-01 0.129D+00 0.251D+00 0.602D+00
 Gap=     0.177 Goal=   None    Shift=    0.000
 RMSDP=5.79D-07 MaxDP=6.62D-05 DE=-1.97D-08 OVMax= 1.91D-05

 Cycle  11  Pass 1  IDiag  1:
 E= -880.907014817702     Delta-E=       -0.000000001351 Rises=F Damp=F
 DIIS: error= 4.23D-07 at cycle  11 NSaved=  11.
 NSaved=11 IEnMin=11 EnMin= -880.907014817702     IErMin=11 ErrMin= 4.23D-07
 ErrMax= 4.23D-07  0.00D+00 EMaxC= 1.00D-01 BMatC= 2.49D-10 BMatP= 1.84D-09
 IDIUse=1 WtCom= 1.00D+00 WtEn= 0.00D+00
 Coeff-Com:  0.193D-04-0.387D-04-0.219D-03-0.427D-03-0.121D-02-0.216D-02
 Coeff-Com:  0.405D-02 0.333D-01 0.995D-01 0.346D+00 0.521D+00
 Coeff:      0.193D-04-0.387D-04-0.219D-03-0.427D-03-0.121D-02-0.216D-02
 Coeff:      0.405D-02 0.333D-01 0.995D-01 0.346D+00 0.521D+00
 Gap=     0.177 Goal=   None    Shift=    0.000
 RMSDP=1.60D-07 MaxDP=2.55D-05 DE=-1.35D-09 OVMax= 5.85D-06

 Cycle  12  Pass 1  IDiag  1:
 E= -880.907014817886     Delta-E=       -0.000000000184 Rises=F Damp=F
 DIIS: error= 1.23D-07 at cycle  12 NSaved=  12.
 NSaved=12 IEnMin=12 EnMin= -880.907014817886     IErMin=12 ErrMin= 1.23D-07
 ErrMax= 1.23D-07  0.00D+00 EMaxC= 1.00D-01 BMatC= 1.90D-11 BMatP= 2.49D-10
 IDIUse=1 WtCom= 1.00D+00 WtEn= 0.00D+00
 Coeff-Com:  0.244D-05-0.337D-05-0.383D-04-0.786D-04-0.281D-03-0.540D-03
 Coeff-Com: -0.130D-02-0.157D-02 0.145D-01 0.848D-01 0.260D+00 0.644D+00
 Coeff:      0.244D-05-0.337D-05-0.383D-04-0.786D-04-0.281D-03-0.540D-03
 Coeff:     -0.130D-02-0.157D-02 0.145D-01 0.848D-01 0.260D+00 0.644D+00
 Gap=     0.177 Goal=   None    Shift=    0.000
 RMSDP=9.40D-08 MaxDP=1.96D-05 DE=-1.84D-10 OVMax= 1.54D-06

 Cycle  13  Pass 1  IDiag  1:
 E= -880.907014817906     Delta-E=       -0.000000000020 Rises=F Damp=F
 DIIS: error= 3.74D-08 at cycle  13 NSaved=  13.
 NSaved=13 IEnMin=13 EnMin= -880.907014817906     IErMin=13 ErrMin= 3.74D-08
 ErrMax= 3.74D-08  0.00D+00 EMaxC= 1.00D-01 BMatC= 1.18D-12 BMatP= 1.90D-11
 IDIUse=1 WtCom= 1.00D+00 WtEn= 0.00D+00
 Coeff-Com: -0.462D-06 0.155D-05 0.291D-06-0.260D-06-0.260D-04-0.467D-04
 Coeff-Com: -0.870D-03-0.329D-02-0.204D-02 0.781D-02 0.702D-01 0.274D+00
 Coeff-Com:  0.655D+00
 Coeff:     -0.462D-06 0.155D-05 0.291D-06-0.260D-06-0.260D-04-0.467D-04
 Coeff:     -0.870D-03-0.329D-02-0.204D-02 0.781D-02 0.702D-01 0.274D+00
 Coeff:      0.655D+00
 Gap=     0.177 Goal=   None    Shift=    0.000
 RMSDP=1.98D-08 MaxDP=3.37D-06 DE=-2.00D-11 OVMax= 2.50D-07

 Cycle  14  Pass 1  IDiag  1:
 E= -880.907014817904     Delta-E=        0.000000000002 Rises=F Damp=F
 DIIS: error= 1.35D-08 at cycle  14 NSaved=  14.
 NSaved=14 IEnMin=13 EnMin= -880.907014817906     IErMin=14 ErrMin= 1.35D-08
 ErrMax= 1.35D-08  0.00D+00 EMaxC= 1.00D-01 BMatC= 1.67D-13 BMatP= 1.18D-12
 IDIUse=1 WtCom= 1.00D+00 WtEn= 0.00D+00
 Coeff-Com: -0.373D-06 0.933D-06 0.280D-05 0.545D-05 0.704D-05 0.199D-04
 Coeff-Com: -0.331D-03-0.146D-02-0.216D-02-0.309D-02 0.132D-01 0.774D-01
 Coeff-Com:  0.326D+00 0.590D+00
 Coeff:     -0.373D-06 0.933D-06 0.280D-05 0.545D-05 0.704D-05 0.199D-04
 Coeff:     -0.331D-03-0.146D-02-0.216D-02-0.309D-02 0.132D-01 0.774D-01
 Coeff:      0.326D+00 0.590D+00
 Gap=     0.177 Goal=   None    Shift=    0.000
 RMSDP=6.84D-09 MaxDP=8.68D-07 DE= 1.82D-12 OVMax= 7.57D-08

 SCF Done:  E(RPBE1PBE) =  -880.907014818     A.U. after   14 cycles
            NFock= 14  Conv=0.68D-08     -V/T= 2.0043
 KE= 8.771375761791D+02 PE=-4.865125494444D+03 EE= 1.695957023348D+03
 Leave Link  502 at Tue Jan 10 12:33:33 2017, MaxMem= 13421772800 cpu:      1040.4
 (Enter /share/apps//g09/l601.exe)
 Copying SCF densities to generalized density rwf, IOpCl= 0 IROHF=0.

 **********************************************************************

            Population analysis using the SCF density.

 **********************************************************************

 Orbital symmetries:
       Occupied  (A) (A) (A) (A) (A) (A) (A) (A) (A) (A) (A) (A)
                 (A) (A) (A) (A) (A) (A) (A) (A) (A) (A) (A) (A)
                 (A) (A) (A) (A) (A) (A) (A) (A) (A) (A) (A) (A)
                 (A) (A) (A) (A) (A) (A) (A) (A) (A) (A) (A) (A)
                 (A) (A) (A) (A) (A) (A) (A) (A) (A) (A) (A) (A)
                 (A) (A) (A) (A) (A) (A)
       Virtual   (A) (A) (A) (A) (A) (A) (A) (A) (A) (A) (A) (A)
                 (A) (A) (A) (A) (A) (A) (A) (A) (A) (A) (A) (A)
                 (A) (A) (A) (A) (A) (A) (A) (A) (A) (A) (A) (A)
                 (A) (A) (A) (A) (A) (A) (A) (A) (A) (A) (A) (A)
                 (A) (A) (A) (A) (A) (A) (A) (A) (A) (A) (A) (A)
                 (A) (A) (A) (A) (A) (A) (A) (A) (A) (A) (A) (A)
                 (A) (A) (A) (A) (A) (A) (A) (A) (A) (A) (A) (A)
                 (A) (A) (A) (A) (A) (A) (A) (A) (A) (A) (A) (A)
                 (A) (A) (A) (A) (A) (A) (A) (A) (A) (A) (A) (A)
                 (A) (A) (A) (A) (A) (A) (A) (A) (A) (A) (A) (A)
                 (A) (A) (A) (A) (A) (A) (A) (A) (A) (A) (A) (A)
                 (A) (A) (A) (A) (A) (A) (A) (A) (A) (A) (A) (A)
                 (A) (A) (A) (A) (A) (A) (A) (A) (A) (A) (A) (A)
                 (A) (A) (A) (A) (A) (A) (A) (A) (A) (A) (A) (A)
                 (A) (A) (A) (A) (A) (A) (A) (A) (A) (A) (A) (A)
                 (A) (A) (A) (A) (A) (A) (A) (A) (A) (A) (A) (A)
                 (A) (A) (A) (A) (A) (A) (A) (A) (A) (A) (A) (A)
                 (A) (A) (A) (A) (A) (A) (A) (A) (A) (A) (A) (A)
                 (A) (A) (A) (A) (A) (A) (A) (A) (A) (A) (A) (A)
                 (A) (A) (A) (A) (A) (A) (A) (A) (A) (A) (A) (A)
                 (A) (A) (A) (A) (A) (A) (A) (A) (A) (A) (A) (A)
                 (A) (A) (A) (A) (A) (A) (A) (A) (A) (A) (A) (A)
                 (A) (A) (A) (A) (A) (A) (A) (A) (A) (A) (A) (A)
                 (A) (A) (A) (A) (A) (A) (A) (A) (A) (A) (A) (A)
                 (A) (A) (A) (A) (A) (A) (A) (A) (A) (A) (A) (A)
                 (A) (A) (A) (A) (A) (A) (A) (A) (A) (A) (A) (A)
                 (A) (A) (A) (A) (A) (A) (A) (A) (A) (A) (A) (A)
                 (A) (A) (A) (A) (A) (A) (A) (A) (A) (A) (A) (A)
                 (A) (A) (A) (A) (A) (A) (A) (A) (A) (A) (A) (A)
                 (A) (A) (A) (A) (A) (A) (A) (A) (A) (A) (A) (A)
                 (A) (A) (A) (A) (A) (A) (A) (A) (A) (A) (A) (A)
                 (A) (A) (A) (A) (A) (A) (A) (A) (A) (A) (A) (A)
                 (A) (A) (A) (A) (A) (A) (A) (A) (A) (A) (A) (A)
                 (A) (A) (A) (A) (A) (A) (A) (A) (A) (A) (A) (A)
                 (A) (A) (A) (A) (A) (A) (A) (A) (A) (A) (A) (A)
                 (A) (A)
 The electronic state is 1-A.
 Alpha  occ. eigenvalues --  -19.45531 -19.44368 -19.39101 -19.37807 -19.36050
 Alpha  occ. eigenvalues --  -19.33540 -10.57800 -10.46615 -10.45195 -10.44446
 Alpha  occ. eigenvalues --  -10.44363 -10.43270 -10.40577 -10.39643 -10.39280
 Alpha  occ. eigenvalues --  -10.38976 -10.37449  -1.35214  -1.27772  -1.25383
 Alpha  occ. eigenvalues --   -1.23927  -1.21209  -1.18830  -1.01232  -0.96850
 Alpha  occ. eigenvalues --   -0.95416  -0.89089  -0.87651  -0.85513  -0.83756
 Alpha  occ. eigenvalues --   -0.82271  -0.80581  -0.77041  -0.75502  -0.71638
 Alpha  occ. eigenvalues --   -0.70342  -0.68336  -0.68156  -0.67541  -0.65721
 Alpha  occ. eigenvalues --   -0.64126  -0.62795  -0.62297  -0.60924  -0.60586
 Alpha  occ. eigenvalues --   -0.60100  -0.59373  -0.58367  -0.58232  -0.57624
 Alpha  occ. eigenvalues --   -0.57144  -0.56435  -0.55462  -0.55033  -0.54129
 Alpha  occ. eigenvalues --   -0.52920  -0.51640  -0.51141  -0.50094  -0.48692
 Alpha  occ. eigenvalues --   -0.48193  -0.47036  -0.45572  -0.42497  -0.40090
 Alpha  occ. eigenvalues --   -0.37818
 Alpha virt. eigenvalues --   -0.20159  -0.14145  -0.11571  -0.10186  -0.09363
 Alpha virt. eigenvalues --   -0.08723  -0.08148  -0.07633  -0.07316  -0.06335
 Alpha virt. eigenvalues --   -0.06058  -0.05671  -0.05441  -0.04557  -0.04381
 Alpha virt. eigenvalues --   -0.04020  -0.03538  -0.03146  -0.02883  -0.02626
 Alpha virt. eigenvalues --   -0.01963  -0.01711  -0.01082  -0.00721  -0.00252
 Alpha virt. eigenvalues --    0.00150   0.00559   0.00760   0.01068   0.01370
 Alpha virt. eigenvalues --    0.01817   0.02191   0.02345   0.02592   0.02735
 Alpha virt. eigenvalues --    0.03534   0.03853   0.04139   0.04804   0.05595
 Alpha virt. eigenvalues --    0.06017   0.06276   0.06576   0.06740   0.06994
 Alpha virt. eigenvalues --    0.07497   0.08203   0.08453   0.08867   0.09070
 Alpha virt. eigenvalues --    0.09103   0.09724   0.10022   0.10405   0.10415
 Alpha virt. eigenvalues --    0.11222   0.11348   0.11768   0.12159   0.12347
 Alpha virt. eigenvalues --    0.12717   0.13021   0.13108   0.13797   0.14282
 Alpha virt. eigenvalues --    0.14791   0.15113   0.15302   0.15533   0.16336
 Alpha virt. eigenvalues --    0.16597   0.17282   0.17868   0.18096   0.18480
 Alpha virt. eigenvalues --    0.19025   0.19620   0.20299   0.20365   0.20968
 Alpha virt. eigenvalues --    0.21769   0.22199   0.22815   0.22856   0.23533
 Alpha virt. eigenvalues --    0.23840   0.24294   0.24671   0.25722   0.25919
 Alpha virt. eigenvalues --    0.26379   0.26629   0.26869   0.27653   0.29123
 Alpha virt. eigenvalues --    0.29419   0.29957   0.30911   0.31337   0.31425
 Alpha virt. eigenvalues --    0.32145   0.32541   0.32994   0.33299   0.34501
 Alpha virt. eigenvalues --    0.35155   0.35855   0.36756   0.37004   0.38188
 Alpha virt. eigenvalues --    0.38703   0.39536   0.40150   0.40804   0.42293
 Alpha virt. eigenvalues --    0.42466   0.42873   0.44235   0.44905   0.45953
 Alpha virt. eigenvalues --    0.46383   0.47409   0.48172   0.48499   0.49312
 Alpha virt. eigenvalues --    0.51345   0.51986   0.52318   0.52414   0.53715
 Alpha virt. eigenvalues --    0.53829   0.54487   0.54731   0.55669   0.56166
 Alpha virt. eigenvalues --    0.56515   0.57368   0.57706   0.58194   0.59640
 Alpha virt. eigenvalues --    0.59713   0.60515   0.60655   0.61924   0.62198
 Alpha virt. eigenvalues --    0.63216   0.63567   0.64225   0.64612   0.66099
 Alpha virt. eigenvalues --    0.66386   0.67072   0.68233   0.69675   0.71827
 Alpha virt. eigenvalues --    0.74219   0.75400   0.76517   0.78026   0.81070
 Alpha virt. eigenvalues --    0.81598   0.83443   0.84860   0.85711   0.87603
 Alpha virt. eigenvalues --    0.89741   0.90832   0.92638   0.93417   0.94527
 Alpha virt. eigenvalues --    0.95264   0.95657   0.96181   0.96781   0.99544
 Alpha virt. eigenvalues --    1.00708   1.02347   1.04348   1.04455   1.06375
 Alpha virt. eigenvalues --    1.07383   1.08256   1.08663   1.08954   1.12460
 Alpha virt. eigenvalues --    1.12824   1.13994   1.15275   1.15918   1.16753
 Alpha virt. eigenvalues --    1.17910   1.20844   1.21732   1.23160   1.24129
 Alpha virt. eigenvalues --    1.24461   1.24818   1.26030   1.27063   1.28413
 Alpha virt. eigenvalues --    1.29415   1.30152   1.31533   1.32505   1.33321
 Alpha virt. eigenvalues --    1.33988   1.34438   1.34578   1.36580   1.37023
 Alpha virt. eigenvalues --    1.39017   1.40208   1.41805   1.43360   1.43577
 Alpha virt. eigenvalues --    1.43905   1.44651   1.45322   1.45418   1.46637
 Alpha virt. eigenvalues --    1.46764   1.47508   1.47898   1.48507   1.50060
 Alpha virt. eigenvalues --    1.50943   1.51518   1.52625   1.53978   1.54917
 Alpha virt. eigenvalues --    1.55328   1.56677   1.57015   1.57293   1.57816
 Alpha virt. eigenvalues --    1.58916   1.59828   1.61240   1.61467   1.62911
 Alpha virt. eigenvalues --    1.63954   1.65510   1.66522   1.67344   1.67812
 Alpha virt. eigenvalues --    1.68316   1.69706   1.70760   1.71962   1.73064
 Alpha virt. eigenvalues --    1.74426   1.74795   1.76403   1.79139   1.80089
 Alpha virt. eigenvalues --    1.81505   1.82767   1.84715   1.85223   1.86790
 Alpha virt. eigenvalues --    1.87348   1.89607   1.91102   1.92350   1.93799
 Alpha virt. eigenvalues --    1.95622   1.95961   1.97254   1.99735   2.01543
 Alpha virt. eigenvalues --    2.01884   2.03451   2.03990   2.05167   2.06806
 Alpha virt. eigenvalues --    2.07901   2.09225   2.09915   2.10958   2.11813
 Alpha virt. eigenvalues --    2.12720   2.17185   2.17704   2.20548   2.22660
 Alpha virt. eigenvalues --    2.23120   2.28784   2.33623   2.33723   2.34060
 Alpha virt. eigenvalues --    2.34655   2.37167   2.39106   2.39184   2.39847
 Alpha virt. eigenvalues --    2.40146   2.41764   2.42157   2.42410   2.43433
 Alpha virt. eigenvalues --    2.44430   2.44695   2.45211   2.45904   2.47460
 Alpha virt. eigenvalues --    2.48150   2.48722   2.49208   2.52039   2.53592
 Alpha virt. eigenvalues --    2.55332   2.57063   2.59126   2.61056   2.63358
 Alpha virt. eigenvalues --    2.64535   2.68555   2.69277   2.70775   2.72147
 Alpha virt. eigenvalues --    2.73264   2.73820   2.74764   2.75966   2.76814
 Alpha virt. eigenvalues --    2.78885   2.81556   2.82871   2.84846   2.86982
 Alpha virt. eigenvalues --    2.89174   2.90177   2.90689   2.91889   2.93147
 Alpha virt. eigenvalues --    2.93877   2.95426   2.95763   2.96634   2.98108
 Alpha virt. eigenvalues --    2.99108   3.00530   3.02964   3.04144   3.05279
 Alpha virt. eigenvalues --    3.07430   3.07529   3.09743   3.10592   3.12360
 Alpha virt. eigenvalues --    3.12901   3.14261   3.17715   3.18519   3.21262
 Alpha virt. eigenvalues --    3.25646   3.29225   3.31814   3.34472   3.36886
 Alpha virt. eigenvalues --    3.45799   3.56520   3.64262   3.66049   3.67846
 Alpha virt. eigenvalues --    3.68487   3.68850   3.69660   3.70367   3.72476
 Alpha virt. eigenvalues --    3.74082   3.75939   3.80772   3.86192   3.86711
 Alpha virt. eigenvalues --    3.93043   3.94355   3.94943   3.98972   4.00516
 Alpha virt. eigenvalues --    4.01178   4.04431   4.07769   4.09697   4.13460
 Alpha virt. eigenvalues --    4.20659   4.26311   4.90943   4.95907   4.97546
 Alpha virt. eigenvalues --    5.03091   5.05026   5.06064   5.17301   5.23491
 Alpha virt. eigenvalues --    5.28061   5.31362   5.34896   5.35883   5.54358
 Alpha virt. eigenvalues --    5.57951   5.60077   5.64641   5.70481   5.78993
 Alpha virt. eigenvalues --   23.66534  23.71781  23.75615  23.75729  23.78441
 Alpha virt. eigenvalues --   23.83972  23.88066  23.89469  23.89602  23.90834
 Alpha virt. eigenvalues --   24.06009  49.87211  49.87754  49.91636  49.93689
 Alpha virt. eigenvalues --   49.94862  50.00208
          Condensed to atoms (all electrons):
               1          2          3          4          5          6
     1  C    9.163379  -2.632637   0.720282  -0.957709   0.067610  -0.373235
     2  C   -2.632637  14.544380  -5.707961   2.284168  -0.623448  -1.066511
     3  C    0.720282  -5.707961  17.410985  -9.457231   3.321312  -0.546471
     4  C   -0.957709   2.284168  -9.457231  27.724566 -11.598513  -1.234755
     5  C    0.067610  -0.623448   3.321312 -11.598513  17.059393  -1.935982
     6  C   -0.373235  -1.066511  -0.546471  -1.234755  -1.935982  10.648974
     7  O   -0.245737   0.063364   0.041845   0.175410  -0.135875   0.043545
     8  O   -0.012149   0.131421  -0.342317  -0.088284  -0.008111   0.138298
     9  O   -0.056402   0.049760  -0.176458   0.110906  -0.016797   0.030352
    10  O    0.205812  -0.094095  -0.051166   0.067595  -0.022324   0.007461
    11  H    0.446470  -0.123084   0.022361   0.006803  -0.006860   0.008807
    12  H    0.285336   0.111880  -0.074931   0.019549   0.002194   0.003046
    13  H    0.026618   0.298567   0.036568  -0.032133  -0.007114   0.001480
    14  H    0.039840  -0.112339   0.469710  -0.048061   0.009498  -0.007054
    15  H   -0.008224   0.010196  -0.109968   0.183530   0.207235   0.031828
    16  H   -0.002472   0.021697   0.009707   0.046447  -0.009817  -0.051566
    17  H    0.003946   0.023870  -0.008035   0.006279  -0.073671   0.461624
    18  O    0.008228  -0.078490   0.073687  -0.333808   0.289281   0.090169
    19  C   -0.331765   0.165432   0.034056  -0.012374   0.005496  -0.002794
    20  H    0.025620  -0.000799  -0.008040   0.000019  -0.000167   0.000172
    21  H    0.012464  -0.020359  -0.002187  -0.000554   0.000359  -0.000019
    22  H   -0.062713   0.051742   0.009536   0.007180  -0.001678   0.002871
    23  C    0.001431  -0.137904   0.111992  -0.277108   0.288003  -0.282658
    24  H   -0.000946  -0.005188  -0.002907   0.023469  -0.052762   0.035204
    25  H    0.000052   0.004231  -0.003584  -0.007869   0.012834  -0.006840
    26  H    0.000025   0.001174   0.001206  -0.002683   0.039659  -0.013662
    27  C    0.004960  -0.078435   0.047078   0.041977  -0.289274   0.000023
    28  H    0.000668   0.003524   0.050933   0.021753  -0.057795  -0.001903
    29  H   -0.000135  -0.001650   0.004946  -0.128716   0.089931  -0.001153
    30  H   -0.000085   0.001752  -0.000830   0.031024  -0.002990  -0.002258
    31  C    0.064844   0.036295  -0.362291  -0.157751  -0.151745   0.069781
    32  O   -0.030577  -0.062472   0.098895  -0.054226   0.019355   0.044179
    33  C    0.142121  -0.224479   0.334930   0.216567  -0.267140  -0.215890
    34  H    0.003737  -0.007944   0.020670  -0.011067   0.002078   0.001180
    35  H   -0.002058   0.008049  -0.017986   0.009584  -0.003170   0.000591
    36  H    0.000292  -0.004740   0.000941  -0.004033   0.002791   0.001119
               7          8          9         10         11         12
     1  C   -0.245737  -0.012149  -0.056402   0.205812   0.446470   0.285336
     2  C    0.063364   0.131421   0.049760  -0.094095  -0.123084   0.111880
     3  C    0.041845  -0.342317  -0.176458  -0.051166   0.022361  -0.074931
     4  C    0.175410  -0.088284   0.110906   0.067595   0.006803   0.019549
     5  C   -0.135875  -0.008111  -0.016797  -0.022324  -0.006860   0.002194
     6  C    0.043545   0.138298   0.030352   0.007461   0.008807   0.003046
     7  O    7.980164  -0.014533   0.022331   0.022369   0.008639   0.003169
     8  O   -0.014533   8.072813   0.040168   0.000322   0.000061  -0.000135
     9  O    0.022331   0.040168   8.004557   0.005888  -0.001071   0.015675
    10  O    0.022369   0.000322   0.005888   7.990225  -0.030134  -0.053872
    11  H    0.008639   0.000061  -0.001071  -0.030134   0.475584  -0.025780
    12  H    0.003169  -0.000135   0.015675  -0.053872  -0.025780   0.482164
    13  H   -0.036749  -0.000235   0.011686  -0.003201  -0.009547   0.004188
    14  H    0.010357  -0.007567  -0.047362   0.018815   0.000363  -0.000186
    15  H   -0.003751  -0.015176   0.005884  -0.000513  -0.000001  -0.000019
    16  H   -0.013289   0.004535  -0.010526  -0.000019  -0.000046   0.000148
    17  H   -0.038745   0.000060  -0.000460   0.000068  -0.000053  -0.000022
    18  O    0.016217   0.019308  -0.001691  -0.000025   0.000007  -0.000011
    19  C   -0.007072  -0.000552  -0.006617   0.122636  -0.001453  -0.000840
    20  H    0.000166  -0.000001  -0.000008  -0.055050  -0.000300  -0.000131
    21  H    0.000702   0.000003  -0.000002  -0.034359   0.007297   0.001272
    22  H   -0.002038  -0.000018   0.000037  -0.051030  -0.001212  -0.001036
    23  C    0.009292  -0.017820   0.000280  -0.000247  -0.000005  -0.000067
    24  H   -0.000666   0.000307   0.000009   0.000001   0.000000   0.000000
    25  H   -0.000287   0.000562   0.000038  -0.000000   0.000000  -0.000000
    26  H    0.000035   0.000113  -0.000006   0.000000  -0.000000  -0.000000
    27  C    0.004325   0.128224   0.015018   0.001622   0.000113  -0.000041
    28  H    0.000057  -0.052631  -0.000021   0.000059  -0.000000   0.000019
    29  H   -0.000103  -0.023373   0.000406  -0.000010  -0.000000  -0.000001
    30  H    0.000011  -0.058551  -0.000940   0.000006  -0.000000  -0.000000
    31  C    0.045878   0.073740   0.259943   0.005698   0.000369   0.012271
    32  O    0.018989  -0.007860  -0.109967   0.000064   0.000195  -0.000972
    33  C    0.031687  -0.015547  -0.359504  -0.003203  -0.000421  -0.006270
    34  H   -0.000264   0.000255  -0.009140  -0.000209  -0.000004   0.000074
    35  H   -0.000179   0.000157   0.013793   0.000020  -0.000000  -0.000047
    36  H    0.000136  -0.001438  -0.001291   0.000014   0.000000  -0.000009
              13         14         15         16         17         18
     1  C    0.026618   0.039840  -0.008224  -0.002472   0.003946   0.008228
     2  C    0.298567  -0.112339   0.010196   0.021697   0.023870  -0.078490
     3  C    0.036568   0.469710  -0.109968   0.009707  -0.008035   0.073687
     4  C   -0.032133  -0.048061   0.183530   0.046447   0.006279  -0.333808
     5  C   -0.007114   0.009498   0.207235  -0.009817  -0.073671   0.289281
     6  C    0.001480  -0.007054   0.031828  -0.051566   0.461624   0.090169
     7  O   -0.036749   0.010357  -0.003751  -0.013289  -0.038745   0.016217
     8  O   -0.000235  -0.007567  -0.015176   0.004535   0.000060   0.019308
     9  O    0.011686  -0.047362   0.005884  -0.010526  -0.000460  -0.001691
    10  O   -0.003201   0.018815  -0.000513  -0.000019   0.000068  -0.000025
    11  H   -0.009547   0.000363  -0.000001  -0.000046  -0.000053   0.000007
    12  H    0.004188  -0.000186  -0.000019   0.000148  -0.000022  -0.000011
    13  H    0.469412  -0.003458  -0.002675  -0.000279   0.000793  -0.001275
    14  H   -0.003458   0.400073  -0.006199   0.000208   0.000021   0.000299
    15  H   -0.002675  -0.006199   0.462670   0.000579  -0.000281  -0.004461
    16  H   -0.000279   0.000208   0.000579   0.303997   0.000492  -0.005407
    17  H    0.000793   0.000021  -0.000281   0.000492   0.440317  -0.011139
    18  O   -0.001275   0.000299  -0.004461  -0.005407  -0.011139   7.957420
    19  C   -0.002203  -0.003501  -0.000159  -0.000025   0.000046   0.000001
    20  H   -0.000209   0.000069   0.000002   0.000000  -0.000000  -0.000000
    21  H   -0.000357   0.000037   0.000003  -0.000000   0.000000  -0.000000
    22  H    0.002693   0.000025  -0.000093  -0.000001  -0.000004   0.000001
    23  C   -0.001347   0.000256   0.005127  -0.002120  -0.010766   0.145404
    24  H    0.000151  -0.000003  -0.000132  -0.000556   0.000915  -0.035154
    25  H   -0.000036   0.000001   0.000113   0.002449  -0.000736  -0.030115
    26  H    0.000003  -0.000000   0.000002  -0.000001   0.000169  -0.056651
    27  C    0.000813  -0.005551   0.002835  -0.000598  -0.000347   0.006234
    28  H   -0.000009  -0.000063  -0.005472  -0.000225  -0.000002  -0.000214
    29  H    0.000034   0.000033   0.017307   0.000117   0.000002   0.001483
    30  H    0.000004  -0.000084  -0.000357   0.000091   0.000000  -0.000260
    31  C    0.003964   0.025846  -0.005334   0.005558   0.002562   0.001753
    32  O    0.000186  -0.002442  -0.001630   0.217378  -0.001453   0.006853
    33  C    0.002175  -0.001307  -0.002695   0.039406   0.000863   0.001593
    34  H    0.000004  -0.000089   0.000007  -0.000032  -0.000001  -0.000001
    35  H   -0.000002   0.000016  -0.000000   0.000467   0.000001  -0.000005
    36  H    0.000002   0.000044  -0.000001  -0.001019  -0.000001   0.000041
              19         20         21         22         23         24
     1  C   -0.331765   0.025620   0.012464  -0.062713   0.001431  -0.000946
     2  C    0.165432  -0.000799  -0.020359   0.051742  -0.137904  -0.005188
     3  C    0.034056  -0.008040  -0.002187   0.009536   0.111992  -0.002907
     4  C   -0.012374   0.000019  -0.000554   0.007180  -0.277108   0.023469
     5  C    0.005496  -0.000167   0.000359  -0.001678   0.288003  -0.052762
     6  C   -0.002794   0.000172  -0.000019   0.002871  -0.282658   0.035204
     7  O   -0.007072   0.000166   0.000702  -0.002038   0.009292  -0.000666
     8  O   -0.000552  -0.000001   0.000003  -0.000018  -0.017820   0.000307
     9  O   -0.006617  -0.000008  -0.000002   0.000037   0.000280   0.000009
    10  O    0.122636  -0.055050  -0.034359  -0.051030  -0.000247   0.000001
    11  H   -0.001453  -0.000300   0.007297  -0.001212  -0.000005   0.000000
    12  H   -0.000840  -0.000131   0.001272  -0.001036  -0.000067   0.000000
    13  H   -0.002203  -0.000209  -0.000357   0.002693  -0.001347   0.000151
    14  H   -0.003501   0.000069   0.000037   0.000025   0.000256  -0.000003
    15  H   -0.000159   0.000002   0.000003  -0.000093   0.005127  -0.000132
    16  H   -0.000025   0.000000  -0.000000  -0.000001  -0.002120  -0.000556
    17  H    0.000046  -0.000000   0.000000  -0.000004  -0.010766   0.000915
    18  O    0.000001  -0.000000  -0.000000   0.000001   0.145404  -0.035154
    19  C    5.133291   0.415597   0.410712   0.398588  -0.000106  -0.000003
    20  H    0.415597   0.473609  -0.018500  -0.026784  -0.000000  -0.000000
    21  H    0.410712  -0.018500   0.506626  -0.042345   0.000004  -0.000000
    22  H    0.398588  -0.026784  -0.042345   0.555929  -0.000025   0.000000
    23  C   -0.000106  -0.000000   0.000004  -0.000025   5.299956   0.399924
    24  H   -0.000003  -0.000000  -0.000000   0.000000   0.399924   0.507004
    25  H    0.000002   0.000000   0.000000  -0.000000   0.393454  -0.043549
    26  H    0.000000   0.000000   0.000000  -0.000000   0.406370  -0.017527
    27  C   -0.000444  -0.000024   0.000007   0.000090  -0.000746   0.000294
    28  H   -0.000185   0.000000   0.000000   0.000001  -0.000048  -0.000001
    29  H    0.000007   0.000000  -0.000000  -0.000001   0.000627   0.000006
    30  H    0.000009   0.000000   0.000000  -0.000000  -0.000342   0.000001
    31  C   -0.007522  -0.000016   0.000344  -0.000997  -0.008809  -0.000357
    32  O   -0.000015  -0.000001  -0.000002   0.000014  -0.004912   0.000426
    33  C    0.005388  -0.000055  -0.000015  -0.000112  -0.003769  -0.000070
    34  H    0.000103  -0.000000  -0.000000  -0.000000  -0.000003  -0.000000
    35  H   -0.000004  -0.000000  -0.000000   0.000000  -0.000007  -0.000000
    36  H   -0.000005   0.000000  -0.000000   0.000000   0.000089  -0.000000
              25         26         27         28         29         30
     1  C    0.000052   0.000025   0.004960   0.000668  -0.000135  -0.000085
     2  C    0.004231   0.001174  -0.078435   0.003524  -0.001650   0.001752
     3  C   -0.003584   0.001206   0.047078   0.050933   0.004946  -0.000830
     4  C   -0.007869  -0.002683   0.041977   0.021753  -0.128716   0.031024
     5  C    0.012834   0.039659  -0.289274  -0.057795   0.089931  -0.002990
     6  C   -0.006840  -0.013662   0.000023  -0.001903  -0.001153  -0.002258
     7  O   -0.000287   0.000035   0.004325   0.000057  -0.000103   0.000011
     8  O    0.000562   0.000113   0.128224  -0.052631  -0.023373  -0.058551
     9  O    0.000038  -0.000006   0.015018  -0.000021   0.000406  -0.000940
    10  O   -0.000000   0.000000   0.001622   0.000059  -0.000010   0.000006
    11  H    0.000000  -0.000000   0.000113  -0.000000  -0.000000  -0.000000
    12  H   -0.000000  -0.000000  -0.000041   0.000019  -0.000001  -0.000000
    13  H   -0.000036   0.000003   0.000813  -0.000009   0.000034   0.000004
    14  H    0.000001  -0.000000  -0.005551  -0.000063   0.000033  -0.000084
    15  H    0.000113   0.000002   0.002835  -0.005472   0.017307  -0.000357
    16  H    0.002449  -0.000001  -0.000598  -0.000225   0.000117   0.000091
    17  H   -0.000736   0.000169  -0.000347  -0.000002   0.000002   0.000000
    18  O   -0.030115  -0.056651   0.006234  -0.000214   0.001483  -0.000260
    19  C    0.000002   0.000000  -0.000444  -0.000185   0.000007   0.000009
    20  H    0.000000   0.000000  -0.000024   0.000000   0.000000   0.000000
    21  H    0.000000   0.000000   0.000007   0.000000  -0.000000   0.000000
    22  H   -0.000000  -0.000000   0.000090   0.000001  -0.000001  -0.000000
    23  C    0.393454   0.406370  -0.000746  -0.000048   0.000627  -0.000342
    24  H   -0.043549  -0.017527   0.000294  -0.000001   0.000006   0.000001
    25  H    0.506896  -0.020056  -0.000188  -0.000000   0.000002   0.000001
    26  H   -0.020056   0.452553  -0.000054  -0.000000   0.000007   0.000001
    27  C   -0.000188  -0.000054   5.215070   0.403629   0.409399   0.405638
    28  H   -0.000000  -0.000000   0.403629   0.525183  -0.038631  -0.026039
    29  H    0.000002   0.000007   0.409399  -0.038631   0.498644  -0.017345
    30  H    0.000001   0.000001   0.405638  -0.026039  -0.017345   0.464613
    31  C    0.001954  -0.000105  -0.036188  -0.003827   0.001773   0.003101
    32  O   -0.002405   0.000032   0.001395   0.001392  -0.000307  -0.000627
    33  C    0.000361  -0.000014   0.000451  -0.001869  -0.000244  -0.000244
    34  H    0.000000  -0.000000   0.000318  -0.000010  -0.000000  -0.000002
    35  H    0.000000  -0.000000   0.000040  -0.000003  -0.000000   0.000001
    36  H   -0.000000   0.000000  -0.001521   0.000029   0.000006   0.000003
              31         32         33         34         35         36
     1  C    0.064844  -0.030577   0.142121   0.003737  -0.002058   0.000292
[...]
 0.00052354,-0.00043887,0.00024731,-0.00012943,0.00042497,0.00039002,-0
 .00004695,0.00016676,-0.19490611,0.03417356,0.69646166,0.00037046,-0.0
 0022775,-0.00006139,0.00180720,0.00041319,0.00075357,-0.00372516,0.000
 98834,-0.00285157,-0.00192612,-0.00107209,0.00084946,-0.00419187,-0.00
 005839,-0.00261988,-0.00277146,-0.00235658,0.00803945,0.00200501,-0.00
 434943,-0.00008524,-0.00008302,-0.00105905,-0.00406147,0.01871358,0.02
 956980,0.01925657,-0.00031324,0.00028702,0.00026499,-0.00002488,0.0000
 0769,0.00000810,0.00006913,-0.00003901,-0.00000860,-0.00041395,-0.0001
 6786,0.00018729,0.00016682,-0.00053000,0.00032764,0.00059409,0.0002397
 4,-0.00022025,-0.04508518,-0.03991015,0.06194604,0.00000488,0.00001213
 ,-0.00003918,0.00307789,-0.00359583,0.00179077,0.00019215,-0.00002080,
 -0.00016414,-0.00000511,0.00002194,0.00001783,-0.00004185,-0.00001343,
 0.00000681,-0.00000855,0.00000254,-0.00002188,0.00013498,0.00105049,0.
 00071441,-0.00010401,-0.00004818,-0.00010689,-0.00019343,-0.00011341,-
 0.00021172,0.00001957,-0.00008023,-0.00001083,0.00065934,0.00128166,-0
 .00028488,-0.00006978,-0.00024340,-0.00012104,-0.00022380,-0.00027216,
 -0.00036177,0.00009258,0.00001876,0.00011285,-0.08565370,0.05398047,0.
 03661835,0.10315109,0.00007556,-0.00009952,0.00080794,-0.00330333,-0.0
 0736586,-0.00914896,-0.00352393,-0.00491775,0.01833815,0.00366056,-0.0
 0619441,-0.00671088,-0.02876362,-0.00721601,0.00401021,0.00837083,-0.0
 1470540,0.02851941,-0.00245435,0.01186624,0.00051056,0.00104681,0.0041
 2394,0.00133135,0.02896227,-0.03621935,-0.06388959,0.00062244,0.000894
 47,-0.00036715,0.00050430,-0.00007634,-0.00034071,-0.00073200,-0.00002
 724,-0.00059177,0.00214671,0.00117693,0.00059525,0.00006059,0.00184868
 ,-0.00163312,-0.00070682,0.00211999,0.00002626,-0.04497234,-0.14550095
 ,0.13687248,0.00014653,0.00104062,-0.00013342,0.00673401,-0.00392178,0
 .00069986,-0.00045683,0.00002686,0.00068297,-0.00002905,-0.00001434,0.
 00000621,0.00013899,0.00002068,-0.00005447,0.00003929,0.00006915,-0.00
 015205,0.00029749,0.00231355,0.00016186,-0.00041998,0.00017852,0.00002
 417,-0.00030285,-0.00001684,0.00009970,0.00015462,-0.00002541,0.000043
 22,-0.00002110,-0.00155783,-0.00041718,-0.00005034,0.00070580,0.000571
 49,0.00002551,0.00041285,0.00004939,0.00013775,0.00002740,0.00010716,0
 .05353787,-0.45982584,-0.06153448,-0.02421510,0.71913799,-0.00048760,0
 .00048219,-0.00023858,0.00043913,0.00072641,0.00041101,-0.00360843,-0.
 00132484,0.00514698,0.00091208,0.00247445,0.00162908,0.01516378,0.0075
 4518,-0.00600732,-0.00487374,0.01184306,-0.01347946,0.00009433,-0.0051
 1549,0.00306919,-0.00359687,-0.00288558,-0.00326380,0.02063282,-0.0586
 0440,-0.01122497,0.00047196,-0.00044933,-0.00022836,0.00006486,-0.0000
 0154,-0.00008623,-0.00003417,-0.00011356,-0.00010739,0.00003822,0.0000
 8575,-0.00000782,-0.00013166,0.00007897,0.00013518,0.00021464,0.000264
 17,0.00023876,0.06296610,0.12109120,-0.19872950,0.00061939,0.00015785,
 -0.00105045,-0.00356619,0.00345249,0.00000169,-0.00027561,0.00006770,0
 .00025773,-0.00000197,-0.00002445,-0.00003045,0.00008057,0.00002744,-0
 .00001741,0.00001292,-0.00001195,0.00003131,-0.00023827,-0.00147087,-0
 .00106230,0.00020299,-0.00013202,0.00018448,0.00026697,0.00013083,0.00
 020540,-0.00010503,0.00008438,0.00005748,0.00066787,0.00138036,0.00020
 292,0.00010284,-0.00007161,-0.00004732,-0.00018116,-0.00021900,-0.0002
 3181,-0.00017816,-0.00005289,-0.00009221,0.03744866,-0.06293990,-0.147
 12147,-0.12104761,-0.04857637,0.36018216,0.00007191,-0.00022632,-0.000
 38136,0.00027759,0.00050224,-0.00147299,0.00830324,0.00323307,-0.00116
 630,-0.00113169,-0.00019938,0.00190479,0.00047167,0.00058680,0.0002196
 6,-0.00027588,0.00056017,-0.00085147,-0.00041751,-0.00048969,0.0004130
 4,0.00038040,0.00025139,-0.00002845,-0.00113205,-0.00604477,0.02650290
 ,-0.00025944,0.00021956,0.00028597,-0.00007031,0.00003661,0.00006021,0
 .00013707,-0.00007483,0.00006623,0.00018734,0.00010762,0.00002117,-0.0
 0013580,-0.00073324,0.00085258,0.00036653,-0.00045026,-0.00007031,0.00
 637374,0.00228261,0.00200735,-0.00000949,-0.00001112,-0.00001320,-0.00
 000649,-0.00024357,-0.00019307,0.00018328,-0.00000499,-0.00019518,-0.0
 0000452,0.00000665,0.00003293,-0.00003812,-0.00001608,0.00000934,-0.00
 000905,-0.00000848,0.00001045,0.00001694,0.00012218,0.00002120,-0.0000
 0246,-0.00000705,-0.00001150,-0.00001087,-0.00001677,-0.00000441,0.000
 00459,-0.00001771,0.00000339,-0.00025423,-0.00026450,-0.00024152,-0.00
 005399,-0.00000380,0.00003355,-0.00000325,0.00004121,0.00002660,0.0000
 5939,-0.00000999,0.00002092,-0.09210246,-0.01762688,0.01249589,0.01322
 388,0.00092514,-0.00432060,0.52922871,-0.00001482,0.00005775,-0.000153
 80,-0.00005040,-0.00025983,-0.00143288,0.00294532,-0.00015803,-0.00120
 829,0.00001299,-0.00061722,-0.00001773,-0.00198593,-0.00037465,0.00009
 479,0.00063569,-0.00089136,0.00196084,-0.00019115,0.00072498,0.0000048
 4,0.00016264,0.00059053,0.00012760,0.00222130,0.01219780,-0.00601931,-
 0.00003652,0.00004067,0.00013245,0.00001629,-0.00002925,0.00003687,0.0
 0005630,0.00003225,0.00004815,0.00034031,0.00016866,0.00015695,0.00010
 597,0.00023941,-0.00034828,0.00004267,0.00003495,0.00004151,0.00164023
 ,0.00243167,-0.00569820,0.00001817,0.00009153,-0.00002562,0.00046721,-
 0.00039572,0.00010709,0.00005406,0.00000061,-0.00007233,-0.00000206,0.
 00000504,0.00000890,-0.00000788,-0.00000667,0.00000382,-0.00000948,-0.
 00001398,0.00001010,0.00004087,0.00025696,0.00002401,-0.00003741,0.000
 00439,0.00000026,-0.00003164,0.00001219,0.00000910,0.00001343,-0.00000
 951,0.00000697,-0.00010562,-0.00022352,-0.00008544,-0.00002802,0.00005
 458,0.00005896,0.00001506,0.00004208,0.00003451,0.00004096,-0.00002367
 ,0.00000936,-0.02411169,-0.15861850,0.07496991,-0.00914603,-0.05121046
 ,0.02642947,-0.04027687,0.58114177,-0.00037620,0.00038170,-0.00017072,
 -0.00002042,0.00017314,-0.00272303,0.00296700,-0.00180877,0.00659449,0
 .00079528,-0.00038244,-0.00009006,-0.00054699,-0.00052536,0.00020898,0
 .00018340,-0.00048620,0.00061171,-0.00014014,0.00054394,0.00038211,-0.
 00051539,-0.00004485,0.00010073,0.02261759,0.01945465,-0.04595138,0.00
 027536,-0.00019387,-0.00005956,0.00007826,-0.00006088,0.00001418,-0.00
 001186,-0.00006539,0.00003344,0.00069812,0.00035637,0.00021319,0.00006
 901,0.00012255,-0.00020572,-0.00011063,0.00017224,-0.00000296,0.001580
 90,-0.00224156,-0.00022939,0.00001496,0.00004596,-0.00002015,-0.000091
 60,0.00043918,-0.00001867,-0.00014141,0.00004914,0.00011303,-0.0000031
 9,-0.00001249,-0.00001013,0.00004280,0.00001024,-0.00000198,0.00000445
 ,-0.00002033,0.00001816,-0.00001904,-0.00016021,-0.00008559,0.00000454
 ,0.00002036,0.00001613,0.00001027,0.00001756,0.00002474,-0.00000225,0.
 00001908,-0.00000101,0.00020357,0.00006318,0.00017099,0.00001192,0.000
 03318,0.00003702,-0.00000048,0.00001660,-0.00002999,-0.00001036,0.0000
 0055,-0.00000561,0.01804350,0.07558770,-0.14974743,-0.00046934,-0.0028
 9182,0.01198589,0.00220120,0.04549562,0.56788388,0.00000676,-0.0000550
 5,0.00025303,0.00005550,-0.00009457,-0.00004837,-0.00008626,-0.0001291
 9,-0.00006086,0.00006483,-0.00001256,-0.00007125,-0.00016483,-0.000075
 09,0.00007997,0.00011370,-0.00015715,0.00017135,-0.00009871,0.00017067
 ,-0.00002854,-0.00008297,-0.00003208,-0.00006715,0.00003512,-0.0006577
 4,-0.00051166,0.00002994,0.00000708,-0.00015076,0.00000072,0.00001424,
 -0.00004772,-0.00001056,-0.00002976,-0.00008549,-0.00002303,0.00001882
 ,-0.00000912,0.00004203,0.00004200,-0.00003363,0.00001157,0.00001584,0
 .00000112,0.00041765,-0.00026654,-0.00006871,-0.00000640,0.00000872,0.
 00000621,-0.00000703,0.00002361,-0.00002100,-0.00005915,0.00000085,0.0
 0007715,0.00000693,-0.00000564,-0.00000739,0.00000409,0.00000088,-0.00
 000387,0.00000917,0.00001604,-0.00001728,0.00000130,-0.00000095,-0.000
 00095,-0.00000081,0.00000110,0.00000113,-0.00000139,0.00000039,0.00000
 129,0.00000006,-0.00000023,0.00000114,0.00002987,0.00012185,0.00009657
 ,0.00003515,-0.00001869,-0.00004599,0.00000270,-0.00003296,-0.00000937
 ,-0.00001420,0.00001754,0.00000636,0.00236103,-0.01096059,-0.00197440,
 0.00000522,-0.00286680,0.00243347,-0.11119387,0.12384862,0.02620953,0.
 11799609,-0.00002367,0.00003552,0.00025340,-0.00002457,-0.00016532,-0.
 00014511,-0.00081485,0.00002311,0.00068454,0.00025052,-0.00004600,-0.0
 0035046,-0.00045260,-0.00019345,0.00000429,0.00021576,-0.00030599,0.00
 046214,-0.00004017,0.00029834,-0.00004743,-0.00006412,0.00003682,0.000
 00042,0.00031710,0.00147302,-0.00279864,0.00008607,-0.00007447,-0.0001
 4473,0.00002209,0.00000398,-0.00005381,-0.00009102,-0.00000891,-0.0000
 4077,0.00003669,0.00003217,0.00000967,0.00001638,0.00005159,-0.0000493
 7,-0.00006746,0.00009518,-0.00000436,0.00033881,0.00036410,-0.00091421
 ,0.00000232,0.00002132,0.00000285,0.00006596,0.00002914,0.00002613,-0.
 00007492,0.00000232,0.00007290,0.00000446,-0.00000323,-0.00001604,0.00
 001187,0.00000685,-0.00000382,0.00000791,0.00000434,-0.00000774,-0.000
 00056,0.00000335,-0.00000761,-0.00000407,0.00000485,0.00000325,-0.0000
 0214,0.00000394,0.00000352,0.00000083,0.00000240,0.00000104,0.00003474
 ,0.00001596,0.00005004,0.00000934,0.00001451,0.00001059,0.00000597,0.0
 0000814,-0.00000537,-0.00000179,0.00000232,0.00000603,0.01170831,-0.01
 997249,-0.00667790,-0.00119975,-0.00376086,0.00444209,0.11873042,-0.25
 384997,-0.04384156,-0.12797479,0.27423594,-0.00003262,0.00008599,0.000
 03829,-0.00001555,0.00007401,0.00013667,-0.00000306,0.00020488,-0.0000
 3319,-0.00001267,0.00002905,0.00000743,0.00039268,0.00006637,0.0000431
 1,-0.00013843,0.00016658,-0.00042700,0.00003498,-0.00016030,-0.0000010
 4,-0.00006441,-0.00014754,-0.00008701,0.00079478,-0.00001522,-0.000470
 67,-0.00007414,-0.00007732,0.00001453,-0.00001297,-0.00002085,0.000019
 54,0.00004117,0.00002311,0.00004536,-0.00003065,0.00000163,-0.00001970
 ,-0.00001771,-0.00001450,0.00001153,-0.00002316,0.00000209,-0.00001751
 ,0.00047263,-0.00005157,0.00145852,-0.00000307,-0.00002028,0.00000675,
 -0.00009739,0.00007364,-0.00004936,0.00003767,-0.00001509,-0.00005620,
 0.00000670,0.00000126,-0.00000493,-0.00001476,-0.00000375,0.00000561,-
 0.00000660,-0.00000687,0.00001446,-0.00000389,-0.00004776,-0.00001270,
 0.00000633,0.00000117,0.00000155,0.00000687,-0.00000127,-0.00000098,-0
 .00000172,0.00000246,-0.00000119,0.00005531,0.00015329,0.00009208,0.00
 001209,-0.00003217,-0.00003621,-0.00000130,-0.00003269,-0.00001547,-0.
 00000885,-0.00000285,-0.00000304,-0.01643655,0.01741539,0.00577057,0.0
 0236242,0.00581607,-0.00294931,0.03016460,-0.05030802,-0.06256283,-0.0
 3117883,0.04753712,0.06078674,0.00000358,-0.00000529,0.00014518,0.0000
 0658,0.00000785,0.00021970,-0.00016047,-0.00014701,0.00009579,-0.00011
 504,-0.00001007,0.00007666,0.00013844,-0.00004953,0.00003298,0.0000566
 9,-0.00005904,-0.00005452,-0.00003552,0.00005799,-0.00012485,0.0000199
 4,0.00004935,-0.00007114,-0.00026638,-0.00202811,0.00257983,0.00000212
 ,-0.00003276,-0.00009880,-0.00001054,0.00000163,-0.00000679,0.00000439
 ,0.00004333,-0.00001428,-0.00006202,-0.00001789,-0.00003596,-0.0000235
 5,-0.00002164,0.00004999,0.00002746,-0.00002502,-0.00000548,-0.0003341
 1,-0.00015646,0.00017705,-0.00000156,-0.00000947,0.00001696,-0.0000836
 6,0.00008223,-0.00001342,-0.00002315,-0.00001246,0.00002550,0.00000346
 ,-0.00000198,-0.00000692,-0.00000225,0.00000236,0.00000138,0.00000253,
 0.00000674,-0.00000372,0.00000009,-0.00004302,-0.00001959,0.00000137,0
 .00000393,0.00000794,0.00001256,0.00000322,0.00000308,-0.00000107,0.00
 000314,-0.00000490,0.00002695,-0.00000693,0.00002548,-0.00001755,0.000
 00480,0.00002832,0.00000313,0.00001289,-0.00000920,0.00002148,-0.00001
 893,0.00000426,-0.00182115,0.00130811,0.01157448,0.00000195,0.00198308
 ,-0.00031392,-0.04864771,-0.01434486,-0.05132196,0.00284358,0.00264761
 ,0.01532243,0.05314014,0.00008913,-0.00010474,-0.00000192,0.00006597,0
 .00002827,0.00067592,-0.00109885,0.00028550,-0.00076860,-0.00017621,0.
 00018276,-0.00005029,0.00010551,0.00011442,-0.00001913,-0.00004299,0.0
 0011454,-0.00012326,0.00002870,-0.00015741,-0.00011120,0.00017666,-0.0
 0001041,0.00002900,-0.00288130,-0.00218417,0.00503476,-0.00004628,0.00
 006070,0.00001652,-0.00002087,0.00002075,0.00000064,0.00000163,0.00000
 771,-0.00000480,-0.00016878,-0.00010734,-0.00006200,-0.00003957,-0.000
 08111,0.00010619,0.00002388,-0.00004331,0.00000365,-0.00014436,0.00012
 471,-0.00008031,-0.00000527,-0.00001696,0.00001502,0.00002208,-0.00011
 212,-0.00001123,0.00002478,-0.00000554,-0.00001365,-0.00000294,0.00000
 269,0.00000384,-0.00000524,0.00000002,-0.00000033,0.00000081,0.0000049
 7,-0.00000627,0.00000562,0.00004520,0.00004047,-0.00000076,-0.00000453
 ,-0.00000746,-0.00000506,-0.00000737,-0.00000927,0.00000074,-0.0000063
 7,-0.00000086,-0.00009277,-0.00009199,-0.00009997,-0.00001189,0.000001
 50,0.00002179,0.00000424,0.00001978,0.00001357,0.00001696,-0.00000442,
 0.00000794,0.00927006,0.01057250,0.02193263,-0.00098734,-0.00119035,-0
 .00036394,-0.01641479,-0.08319818,-0.09018897,-0.00778767,-0.00497309,
 -0.02282812,0.02018341,0.08319823,-0.00002009,0.00003738,-0.00011495,-
 0.00003969,-0.00007407,-0.00050519,0.00038836,-0.00017934,0.00070866,0
 .00010956,-0.00010432,-0.00008154,-0.00032123,-0.00006438,0.00000989,0
 .00004582,-0.00010239,0.00026076,-0.00004857,0.00007618,0.00013717,-0.
 00000567,0.00007598,0.00007650,0.00082676,0.00308014,-0.00305464,-0.00
 001038,0.00002140,0.00007451,0.00001019,-0.00001190,0.00001411,0.00000
 920,-0.00002634,0.00002189,0.00011019,0.00005325,0.00006012,0.00002695
 ,0.00003360,-0.00006482,-0.00001740,0.00003304,0.00000526,0.00083586,0
 .00077321,-0.00017411,0.00000733,0.00002076,-0.00000738,0.00007673,-0.
 00005387,0.00001566,0.00002559,0.00000818,-0.00002256,-0.00000165,0.00
 000114,0.00000480,-0.00000066,-0.00000236,-0.00000049,-0.00000314,-0.0
 0000638,0.00000509,0.00000569,0.00004963,-0.00000037,-0.00000684,0.000
 00057,0.00000045,-0.00000546,0.00000602,0.00000366,0.00000301,0.000000
 29,0.00000239,-0.00001759,-0.00003486,-0.00000963,0.00000256,0.0000116
 9,0.00000362,0.00000123,0.00000470,0.00000980,-0.00000239,0.00000164,-
 0.00000442,-0.00496044,-0.00864035,-0.02127731,0.00051601,-0.00240260,
 0.00227954,-0.04892909,-0.08445066,-0.28688491,-0.00042855,0.00035877,
 -0.00090509,0.05136564,0.09181066,0.31017426,-0.00006551,0.00007648,-0
 .00001172,-0.00006145,0.00004180,-0.00011023,-0.00001508,-0.00027024,0
 .00068062,0.00010096,-0.00002127,0.00002762,0.00021651,-0.00006687,0.0
 0005490,-0.00004363,0.00002473,-0.00018601,0.00003202,0.00002754,0.000
 00052,-0.00017131,-0.00005018,-0.00011531,0.00130495,-0.00100651,-0.00
 152006,0.00007411,-0.00005155,-0.00004357,0.00001528,-0.00000929,-0.00
 000148,-0.00000816,0.00001342,-0.00001885,0.00005263,0.00002876,0.0000
 0247,-0.00001197,0.00000663,-0.00001088,-0.00001009,0.00003295,-0.0000
 2393,-0.00006109,-0.00070328,0.00065763,-0.00000435,-0.00001091,0.0000
 0364,-0.00010803,0.00018088,-0.00002110,-0.00004448,0.00000510,0.00003
 996,-0.00000088,-0.00000332,-0.00000384,0.00001138,0.00000420,-0.00000
 112,0.00000184,-0.00000109,0.00000257,-0.00000967,-0.00009495,-0.00002
 311,0.00000761,0.00000508,0.00000445,0.00001085,0.00000025,0.00000383,
 -0.00000272,0.00000747,-0.00000360,0.00020008,0.00006931,0.00010302,-0
 .00000733,0.00000187,0.00002479,-0.00002829,0.00000156,-0.00001987,-0.
 00002093,0.00000960,-0.00001868,-0.01108559,-0.00456451,0.00278354,0.0
 0054529,0.00324808,0.00012738,-0.30352707,-0.04229768,-0.02223038,-0.0
 1232382,-0.00367667,-0.00153238,-0.00471071,-0.00008725,0.00045216,0.3
 2974864,-0.00000523,-0.00001914,0.00005516,0.00010342,0.00001965,-0.00
 020901,0.00068597,0.00033055,0.00023893,-0.00028663,-0.00008890,0.0001
 3895,-0.00005883,0.00007540,0.00004338,-0.00006399,0.00007716,-0.00003
 362,-0.00004998,-0.00007716,0.00007216,0.00014519,0.00008684,-0.000277
 49,0.00072117,-0.00032455,0.00054529,-0.00001417,-0.00000064,-0.000023
 66,-0.00000481,0.00000677,-0.00001222,-0.00000368,-0.00002901,-0.00000
 088,0.00001041,0.00002149,-0.00000237,0.00000659,-0.00009452,0.0001191
 7,0.00007367,-0.00002617,-0.00003749,0.00160685,0.00016411,0.00023991,
 0.00000052,0.00000114,-0.00000028,0.00005209,-0.00003443,-0.00003697,-
 0.00000291,0.00000468,0.00000538,0.00000250,-0.00000130,-0.00000176,-0
 .00000199,-0.00000109,-0.00000025,0.00000266,0.00000155,-0.00000244,0.
 00000206,0.00000600,0.00001125,0.00000389,0.00000019,-0.00000497,-0.00
 000987,-0.00000261,-0.00000286,-0.00000119,-0.00000530,0.00000480,0.00
 001987,0.00013522,0.00014318,0.00002916,-0.00002861,-0.00002234,0.0000
 1049,-0.00001320,-0.00003045,0.00002240,0.00002646,0.00003241,-0.02693
 175,-0.00534036,-0.00463741,0.00183220,-0.00211712,0.00159374,-0.04446
 454,-0.04824728,-0.00007825,0.02684978,0.00658458,0.00213206,-0.009411
 18,-0.00248485,-0.00030441,0.04912986,0.05139445,0.00000186,0.00004184
 ,0.00004681,-0.00016628,-0.00018521,0.00031527,-0.00178884,-0.00039146
 ,-0.00042394,0.00068916,0.00016382,-0.00054921,-0.00003978,-0.00005332
 ,-0.00002206,0.00006095,-0.00008793,0.00002814,0.00003976,0.00010292,-
 0.00001444,-0.00034536,-0.00041084,0.00026918,-0.00024453,0.00114017,-
 0.00339978,0.00003093,-0.00003644,-0.00002890,0.00001374,-0.00000551,-
 0.00001233,-0.00003856,0.00001060,-0.00001907,-0.00002496,-0.00001357,
 -0.00000129,0.00005348,0.00019314,-0.00024855,-0.00016255,0.00012783,0
 .00003914,-0.00070613,-0.00006720,-0.00020672,-0.00000588,0.00000540,-
 0.00000508,-0.00002552,0.00000604,0.00000768,-0.00001511,0.00000120,0.
 00001973,0.00000397,-0.00000104,-0.00000531,0.00000383,0.00000169,-0.0
 0000416,0.00000029,0.00000099,0.00000041,-0.00000641,0.00002440,0.0000
 1458,-0.00000113,-0.00000467,-0.00000319,-0.00000264,-0.00000176,-0.00
 000402,0.00000118,0.00000274,0.00000209,0.00004755,0.00014743,0.000024
 60,0.00007527,-0.00003259,-0.00010723,-0.00002828,-0.00008183,0.000027
 94,-0.00010600,0.00005595,-0.00004088,0.02637300,0.00316536,0.00130799
 ,-0.00102487,-0.00042914,-0.00004266,-0.01947452,0.00004851,-0.0396075
 4,0.00553257,0.00118013,-0.00079931,-0.02964717,-0.00496100,-0.0007607
 4,0.02092698,0.00034336,0.04420285\\-0.00000039,0.00000233,0.00000374,
 0.00000165,0.00000634,0.00000008,-0.00000042,-0.00001283,0.00001326,0.
 00001409,0.00000687,-0.00000942,0.00001112,-0.00001358,-0.00000344,-0.
 00001563,0.00002282,-0.00000243,0.00000879,-0.00001171,0.00000790,-0.0
 0001187,0.00000472,0.00000399,0.00000100,-0.00000618,-0.00002129,0.000
 00110,-0.00000299,0.00000457,0.00000107,-0.00000119,0.00000536,-0.0000
 0158,0.00000019,0.00000354,-0.00000037,-0.00000002,0.00000206,0.000001
 86,0.00000055,-0.00000178,0.00000167,0.00000149,0.00000034,-0.00000164
 ,0.00000799,-0.00000392,0.00000127,-0.00000150,0.00000021,-0.00000960,
 0.00000095,0.00000089,0.00000464,-0.00000117,0.00000193,0.00000408,0.0
 0000032,0.00000443,0.00000226,0.00000078,0.00000575,0.00000384,0.00000
 019,0.00000357,0.00000288,0.00000448,-0.00000280,0.00000056,-0.0000002
 3,-0.00000062,-0.00000268,0.00000033,-0.00000225,0.00000043,-0.0000000
 9,-0.00000397,0.00000277,-0.00000597,-0.00000391,0.00000107,-0.0000009
 6,-0.00000396,0.00000268,-0.00000080,-0.00000491,0.00000078,-0.0000006
 6,-0.00000627,-0.00001440,0.00001388,0.00001013,0.00000280,-0.00001202
 ,0.00000383,0.00000038,0.00000360,0.00000261,-0.00000316,-0.00000196,0
 .00000156,-0.00000789,0.00000007,-0.00000176,-0.00000317,-0.00000404,-
 0.00000701\\\@


 THERE IS AN OLD, OLD RECIPE IN MAINE FOR STEWING COOT. PLACE THE
 BIRD IN A KETTLE OF WATER WITH A RED BUILDING BRICK FREE OF MORTAR AND
 BLEMISHES. PARBOIL THE COOT AND BRICK TOGETHER FOR THREE HOURS.
 POUR OFF THE WATER, REFILL THE KETTLE, AND AGAIN PARBOIL FOR THREE HOURS.
 ONCE AGAIN POUR OFF THE WATER, FOR THE LAST TIME ADD FRESH WATER,
 AND LET THE COOT AND BRICK SIMMER TOGETHER OVERNIGHT. IN THE MORNING,
 THROW AWAY THE COOT AND EAT THE BRICK.
 Job cpu time:       0 days  6 hours 30 minutes 56.2 seconds.
 File lengths (MBytes):  RWF=    766 Int=      0 D2E=      0 Chk=     19 Scr=      1
 Normal termination of Gaussian 09 at Tue Jan 10 14:54:37 2017.
