 Entering Gaussian System, Link 0=g09
 Initial command:
 /share/apps//g09/l1.exe "/scratch/Gau-21455.inp" -scrdir="/scratch/"
 Entering Link 1 = /share/apps//g09/l1.exe PID=     21456.
  
 Copyright (c) 1988,1990,1992,1993,1995,1998,2003,2009,2013,
            Gaussian, Inc.  All Rights Reserved.
  
 This is part of the Gaussian(R) 09 program.  It is based on
 the Gaussian(R) 03 system (copyright 2003, Gaussian, Inc.),
 the Gaussian(R) 98 system (copyright 1998, Gaussian, Inc.),
 the Gaussian(R) 94 system (copyright 1995, Gaussian, Inc.),
 the Gaussian 92(TM) system (copyright 1992, Gaussian, Inc.),
 the Gaussian 90(TM) system (copyright 1990, Gaussian, Inc.),
 the Gaussian 88(TM) system (copyright 1988, Gaussian, Inc.),
 the Gaussian 86(TM) system (copyright 1986, Carnegie Mellon
 University), and the Gaussian 82(TM) system (copyright 1983,
 Carnegie Mellon University). Gaussian is a federally registered
 trademark of Gaussian, Inc.
  
 This software contains proprietary and confidential information,
 including trade secrets, belonging to Gaussian, Inc.
  
 This software is provided under written license and may be
 used, copied, transmitted, or stored only in accord with that
 written license.
  
 The following legend is applicable only to US Government
 contracts under FAR:
  
                    RESTRICTED RIGHTS LEGEND
  
 Use, reproduction and disclosure by the US Government is
 subject to restrictions as set forth in subparagraphs (a)
 and (c) of the Commercial Computer Software - Restricted
 Rights clause in FAR 52.227-19.
  
 Gaussian, Inc.
 340 Quinnipiac St., Bldg. 40, Wallingford CT 06492
  
  
 ---------------------------------------------------------------
 Warning -- This program may not be used in any manner that
 competes with the business of Gaussian, Inc. or will provide
 assistance to any competitor of Gaussian, Inc.  The licensee
 of this program is prohibited from giving any competitor of
 Gaussian, Inc. access to this program.  By using this program,
 the user acknowledges that Gaussian, Inc. is engaged in the
 business of creating and licensing software in the field of
 computational chemistry and represents and warrants to the
 licensee that it is not a competitor of Gaussian, Inc. and that
 it will not use this program in any manner prohibited above.
 ---------------------------------------------------------------
  

 Cite this work as:
 Gaussian 09, Revision D.01,
 M. J. Frisch, G. W. Trucks, H. B. Schlegel, G. E. Scuseria, 
 M. A. Robb, J. R. Cheeseman, G. Scalmani, V. Barone, B. Mennucci, 
 G. A. Petersson, H. Nakatsuji, M. Caricato, X. Li, H. P. Hratchian, 
 A. F. Izmaylov, J. Bloino, G. Zheng, J. L. Sonnenberg, M. Hada, 
 M. Ehara, K. Toyota, R. Fukuda, J. Hasegawa, M. Ishida, T. Nakajima, 
 Y. Honda, O. Kitao, H. Nakai, T. Vreven, J. A. Montgomery, Jr., 
 J. E. Peralta, F. Ogliaro, M. Bearpark, J. J. Heyd, E. Brothers, 
 K. N. Kudin, V. N. Staroverov, T. Keith, R. Kobayashi, J. Normand, 
 K. Raghavachari, A. Rendell, J. C. Burant, S. S. Iyengar, J. Tomasi, 
 M. Cossi, N. Rega, J. M. Millam, M. Klene, J. E. Knox, J. B. Cross, 
 V. Bakken, C. Adamo, J. Jaramillo, R. Gomperts, R. E. Stratmann, 
 O. Yazyev, A. J. Austin, R. Cammi, C. Pomelli, J. W. Ochterski, 
 R. L. Martin, K. Morokuma, V. G. Zakrzewski, G. A. Voth, 
 P. Salvador, J. J. Dannenberg, S. Dapprich, A. D. Daniels, 
 O. Farkas, J. B. Foresman, J. V. Ortiz, J. Cioslowski, 
 and D. J. Fox, Gaussian, Inc., Wallingford CT, 2013.
 
 ******************************************
 Gaussian 09:  EM64L-G09RevD.01 24-Apr-2013
                 8-Jan-2017 
 ******************************************
 %nproc=20
 Will use up to   20 processors via shared memory.
 %mem=100GB
 %chk=Ac-4_cGalMe.chk
 -------------------------------------------------------------------
 #P PBE1PBE/6-311+G(d,p) opt optcyc=999 freq EmpiricalDispersion=GD3
 -------------------------------------------------------------------
 1/6=999,14=-1,18=20,19=15,26=3,38=1/1,3;
 2/9=110,12=2,17=6,18=5,40=1/2;
 3/5=4,6=6,7=111,11=2,16=1,25=1,30=1,71=1,74=-13,124=31/1,2,3;
 4//1;
 5/5=2,38=5/2;
 6/7=2,8=2,9=2,10=2,28=1/1;
 7//1,2,3,16;
 1/6=999,14=-1,18=20,19=15,26=3/3(2);
 2/9=110/2;
 99//99;
 2/9=110/2;
 3/5=4,6=6,7=111,11=2,16=1,25=1,30=1,71=1,74=-13,124=31/1,2,3;
 4/5=5,16=3,69=1/1;
 5/5=2,38=5/2;
 7//1,2,3,16;
 1/6=999,14=-1,18=20,19=15,26=3/3(-5);
 2/9=110/2;
 6/7=2,8=2,9=2,10=2,19=2,28=1/1;
 99/9=1/99;
 Leave Link    1 at Sun Jan  8 07:46:31 2017, MaxMem= 13421772800 cpu:         1.5
 (Enter /share/apps//g09/l101.exe)
 -------
 disacch
 -------
 Symbolic Z-matrix:
 Charge =  1 Multiplicity = 1
 C                    -1.72018  -1.00687   2.23798 
 C                    -0.33662  -0.78243   1.64982 
 C                     0.03115   0.65041   1.28249 
 C                     1.4729    0.74812   0.7727 
 C                     1.7952   -0.41349  -0.21029 
 C                     0.51338  -1.18952  -0.54486 
 O                    -0.21325  -1.66188   0.48409 
 O                     1.64717   2.03045   0.21722 
 O                    -0.9066    1.23773   0.28545 
 O                    -2.71162  -0.54796   1.34159 
 H                    -1.77594  -0.48387   3.21413 
 H                    -1.82896  -2.0907    2.43487 
 H                     0.40578  -1.11748   2.39619 
 H                    -0.11662   1.31675   2.14083 
 H                     2.12799   0.59108   1.65251 
 H                     2.2008    0.00513  -1.15023 
 H                     0.63517  -1.98921  -1.28293 
 O                     2.72187  -1.26711   0.42937 
 C                    -4.03226  -0.87679   1.79018 
 H                    -4.7265   -0.4978    1.03233 
 H                    -4.15726  -1.96855   1.886 
 H                    -4.25558  -0.39829   2.75876 
 C                     3.44678  -2.14633  -0.44966 
 H                     2.81161  -2.95202  -0.85009 
 H                     3.89934  -1.58105  -1.28084 
 H                     4.23895  -2.59304   0.15992 
 C                     3.02501   2.43266   0.12864 
 H                     3.49297   2.44008   1.12618 
 H                     3.60381   1.77364  -0.53901 
 H                     3.01943   3.4464   -0.28402 
 C                    -1.00126   0.81005  -0.93208 
 O                    -0.37553  -0.18847  -1.43932 
 C                    -1.95185   1.54711  -1.7978 
 H                    -1.90163   2.62083  -1.58698 
 H                    -2.96521   1.19967  -1.54221 
 H                    -1.75834   1.33338  -2.85222 
 
 NAtoms=     36 NQM=       36 NQMF=       0 NMMI=      0 NMMIF=      0
                NMic=       0 NMicF=      0.
                    Isotopes and Nuclear Properties:
 (Nuclear quadrupole moments (NQMom) in fm**2, nuclear magnetic moments (NMagM)
  in nuclear magnetons)

  Atom         1           2           3           4           5           6           7           8           9          10
 IAtWgt=          12          12          12          12          12          12          16          16          16          16
 AtmWgt=  12.0000000  12.0000000  12.0000000  12.0000000  12.0000000  12.0000000  15.9949146  15.9949146  15.9949146  15.9949146
 NucSpn=           0           0           0           0           0           0           0           0           0           0
 AtZEff=   0.0000000   0.0000000   0.0000000   0.0000000   0.0000000   0.0000000   0.0000000   0.0000000   0.0000000   0.0000000
 NQMom=    0.0000000   0.0000000   0.0000000   0.0000000   0.0000000   0.0000000   0.0000000   0.0000000   0.0000000   0.0000000
 NMagM=    0.0000000   0.0000000   0.0000000   0.0000000   0.0000000   0.0000000   0.0000000   0.0000000   0.0000000   0.0000000
 AtZNuc=   6.0000000   6.0000000   6.0000000   6.0000000   6.0000000   6.0000000   8.0000000   8.0000000   8.0000000   8.0000000

  Atom        11          12          13          14          15          16          17          18          19          20
 IAtWgt=           1           1           1           1           1           1           1          16          12           1
 AtmWgt=   1.0078250   1.0078250   1.0078250   1.0078250   1.0078250   1.0078250   1.0078250  15.9949146  12.0000000   1.0078250
 NucSpn=           1           1           1           1           1           1           1           0           0           1
 AtZEff=   0.0000000   0.0000000   0.0000000   0.0000000   0.0000000   0.0000000   0.0000000   0.0000000   0.0000000   0.0000000
 NQMom=    0.0000000   0.0000000   0.0000000   0.0000000   0.0000000   0.0000000   0.0000000   0.0000000   0.0000000   0.0000000
 NMagM=    2.7928460   2.7928460   2.7928460   2.7928460   2.7928460   2.7928460   2.7928460   0.0000000   0.0000000   2.7928460
 AtZNuc=   1.0000000   1.0000000   1.0000000   1.0000000   1.0000000   1.0000000   1.0000000   8.0000000   6.0000000   1.0000000

  Atom        21          22          23          24          25          26          27          28          29          30
 IAtWgt=           1           1          12           1           1           1          12           1           1           1
 AtmWgt=   1.0078250   1.0078250  12.0000000   1.0078250   1.0078250   1.0078250  12.0000000   1.0078250   1.0078250   1.0078250
 NucSpn=           1           1           0           1           1           1           0           1           1           1
 AtZEff=   0.0000000   0.0000000   0.0000000   0.0000000   0.0000000   0.0000000   0.0000000   0.0000000   0.0000000   0.0000000
 NQMom=    0.0000000   0.0000000   0.0000000   0.0000000   0.0000000   0.0000000   0.0000000   0.0000000   0.0000000   0.0000000
 NMagM=    2.7928460   2.7928460   0.0000000   2.7928460   2.7928460   2.7928460   0.0000000   2.7928460   2.7928460   2.7928460
 AtZNuc=   1.0000000   1.0000000   6.0000000   1.0000000   1.0000000   1.0000000   6.0000000   1.0000000   1.0000000   1.0000000

  Atom        31          32          33          34          35          36
 IAtWgt=          12          16          12           1           1           1
 AtmWgt=  12.0000000  15.9949146  12.0000000   1.0078250   1.0078250   1.0078250
 NucSpn=           0           0           0           1           1           1
 AtZEff=   0.0000000   0.0000000   0.0000000   0.0000000   0.0000000   0.0000000
 NQMom=    0.0000000   0.0000000   0.0000000   0.0000000   0.0000000   0.0000000
 NMagM=    0.0000000   0.0000000   0.0000000   2.7928460   2.7928460   2.7928460
 AtZNuc=   6.0000000   8.0000000   6.0000000   1.0000000   1.0000000   1.0000000
 Leave Link  101 at Sun Jan  8 07:46:31 2017, MaxMem= 13421772800 cpu:         4.9
 (Enter /share/apps//g09/l103.exe)

 GradGradGradGradGradGradGradGradGradGradGradGradGradGradGradGradGradGrad
 Berny optimization.
 Initialization pass.
                           ----------------------------
                           !    Initial Parameters    !
                           ! (Angstroms and Degrees)  !
 --------------------------                            --------------------------
 ! Name  Definition              Value          Derivative Info.                !
 --------------------------------------------------------------------------------
 ! R1    R(1,2)                  1.52           estimate D2E/DX2                !
 ! R2    R(1,10)                 1.4132         estimate D2E/DX2                !
 ! R3    R(1,11)                 1.1088         estimate D2E/DX2                !
 ! R4    R(1,12)                 1.1069         estimate D2E/DX2                !
 ! R5    R(2,3)                  1.5242         estimate D2E/DX2                !
 ! R6    R(2,7)                  1.4655         estimate D2E/DX2                !
 ! R7    R(2,13)                 1.1048         estimate D2E/DX2                !
 ! R8    R(3,4)                  1.5323         estimate D2E/DX2                !
 ! R9    R(3,9)                  1.4894         estimate D2E/DX2                !
 ! R10   R(3,14)                 1.0966         estimate D2E/DX2                !
 ! R11   R(4,5)                  1.5555         estimate D2E/DX2                !
 ! R12   R(4,8)                  1.4083         estimate D2E/DX2                !
 ! R13   R(4,15)                 1.1081         estimate D2E/DX2                !
 ! R14   R(5,6)                  1.5353         estimate D2E/DX2                !
 ! R15   R(5,16)                 1.106          estimate D2E/DX2                !
 ! R16   R(5,18)                 1.413          estimate D2E/DX2                !
 ! R17   R(6,7)                  1.3453         estimate D2E/DX2                !
 ! R18   R(6,17)                 1.095          estimate D2E/DX2                !
 ! R19   R(6,32)                 1.6101         estimate D2E/DX2                !
 ! R20   R(8,27)                 1.4381         estimate D2E/DX2                !
 ! R21   R(9,31)                 1.2939         estimate D2E/DX2                !
 ! R22   R(10,19)                1.433          estimate D2E/DX2                !
 ! R23   R(18,23)                1.4392         estimate D2E/DX2                !
 ! R24   R(19,20)                1.0954         estimate D2E/DX2                !
 ! R25   R(19,21)                1.1031         estimate D2E/DX2                !
 ! R26   R(19,22)                1.1032         estimate D2E/DX2                !
 ! R27   R(23,24)                1.1013         estimate D2E/DX2                !
 ! R28   R(23,25)                1.1024         estimate D2E/DX2                !
 ! R29   R(23,26)                1.0948         estimate D2E/DX2                !
 ! R30   R(27,28)                1.1019         estimate D2E/DX2                !
 ! R31   R(27,29)                1.1023         estimate D2E/DX2                !
 ! R32   R(27,30)                1.0945         estimate D2E/DX2                !
 ! R33   R(31,32)                1.2829         estimate D2E/DX2                !
 ! R34   R(31,33)                1.482          estimate D2E/DX2                !
 ! R35   R(33,34)                1.0954         estimate D2E/DX2                !
 ! R36   R(33,35)                1.1013         estimate D2E/DX2                !
 ! R37   R(33,36)                1.0931         estimate D2E/DX2                !
 ! A1    A(2,1,10)             110.1933         estimate D2E/DX2                !
 ! A2    A(2,1,11)             108.4673         estimate D2E/DX2                !
 ! A3    A(2,1,12)             107.6286         estimate D2E/DX2                !
 ! A4    A(10,1,11)            111.7132         estimate D2E/DX2                !
 ! A5    A(10,1,12)            111.2133         estimate D2E/DX2                !
 ! A6    A(11,1,12)            107.4755         estimate D2E/DX2                !
 ! A7    A(1,2,3)              116.851          estimate D2E/DX2                !
 ! A8    A(1,2,7)              107.2062         estimate D2E/DX2                !
 ! A9    A(1,2,13)             107.7865         estimate D2E/DX2                !
 ! A10   A(3,2,7)              110.6173         estimate D2E/DX2                !
 ! A11   A(3,2,13)             106.605          estimate D2E/DX2                !
 ! A12   A(7,2,13)             107.388          estimate D2E/DX2                !
 ! A13   A(2,3,4)              111.5393         estimate D2E/DX2                !
 ! A14   A(2,3,9)              112.3398         estimate D2E/DX2                !
 ! A15   A(2,3,14)             110.4909         estimate D2E/DX2                !
 ! A16   A(4,3,9)              110.1532         estimate D2E/DX2                !
 ! A17   A(4,3,14)             110.3916         estimate D2E/DX2                !
 ! A18   A(9,3,14)             101.5084         estimate D2E/DX2                !
 ! A19   A(3,4,5)              110.9516         estimate D2E/DX2                !
 ! A20   A(3,4,8)              107.8011         estimate D2E/DX2                !
 ! A21   A(3,4,15)             106.4423         estimate D2E/DX2                !
 ! A22   A(5,4,8)              113.8966         estimate D2E/DX2                !
 ! A23   A(5,4,15)             105.8686         estimate D2E/DX2                !
 ! A24   A(8,4,15)             111.6578         estimate D2E/DX2                !
 ! A25   A(4,5,6)              110.0101         estimate D2E/DX2                !
 ! A26   A(4,5,16)             109.293          estimate D2E/DX2                !
 ! A27   A(4,5,18)             107.515          estimate D2E/DX2                !
 ! A28   A(6,5,16)             108.1973         estimate D2E/DX2                !
 ! A29   A(6,5,18)             109.9275         estimate D2E/DX2                !
 ! A30   A(16,5,18)            111.8933         estimate D2E/DX2                !
 ! A31   A(5,6,7)              117.4995         estimate D2E/DX2                !
 ! A32   A(5,6,17)             115.0335         estimate D2E/DX2                !
 ! A33   A(5,6,32)             105.5296         estimate D2E/DX2                !
 ! A34   A(7,6,17)             108.613          estimate D2E/DX2                !
 ! A35   A(7,6,32)             110.1823         estimate D2E/DX2                !
 ! A36   A(17,6,32)             98.1065         estimate D2E/DX2                !
 ! A37   A(2,7,6)              116.3062         estimate D2E/DX2                !
 ! A38   A(4,8,27)             113.4237         estimate D2E/DX2                !
 ! A39   A(3,9,31)             123.0663         estimate D2E/DX2                !
 ! A40   A(1,10,19)            111.9304         estimate D2E/DX2                !
 ! A41   A(5,18,23)            115.0181         estimate D2E/DX2                !
 ! A42   A(10,19,20)           106.7449         estimate D2E/DX2                !
 ! A43   A(10,19,21)           111.0235         estimate D2E/DX2                !
 ! A44   A(10,19,22)           111.2159         estimate D2E/DX2                !
 ! A45   A(20,19,21)           109.312          estimate D2E/DX2                !
 ! A46   A(20,19,22)           109.2121         estimate D2E/DX2                !
 ! A47   A(21,19,22)           109.2746         estimate D2E/DX2                !
 ! A48   A(18,23,24)           112.241          estimate D2E/DX2                !
 ! A49   A(18,23,25)           110.735          estimate D2E/DX2                !
 ! A50   A(18,23,26)           105.8812         estimate D2E/DX2                !
 ! A51   A(24,23,25)           109.7405         estimate D2E/DX2                !
 ! A52   A(24,23,26)           108.7381         estimate D2E/DX2                !
 ! A53   A(25,23,26)           109.3896         estimate D2E/DX2                !
 ! A54   A(8,27,28)            110.6725         estimate D2E/DX2                !
 ! A55   A(8,27,29)            111.9121         estimate D2E/DX2                !
 ! A56   A(8,27,30)            106.104          estimate D2E/DX2                !
 ! A57   A(28,27,29)           109.23           estimate D2E/DX2                !
 ! A58   A(28,27,30)           109.7094         estimate D2E/DX2                !
 ! A59   A(29,27,30)           109.1504         estimate D2E/DX2                !
 ! A60   A(9,31,32)            126.4137         estimate D2E/DX2                !
 ! A61   A(9,31,33)            115.6074         estimate D2E/DX2                !
 ! A62   A(32,31,33)           117.9676         estimate D2E/DX2                !
 ! A63   A(6,32,31)            122.2453         estimate D2E/DX2                !
 ! A64   A(31,33,34)           110.2228         estimate D2E/DX2                !
 ! A65   A(31,33,35)           107.3208         estimate D2E/DX2                !
 ! A66   A(31,33,36)           110.6514         estimate D2E/DX2                !
 ! A67   A(34,33,35)           107.8638         estimate D2E/DX2                !
 ! A68   A(34,33,36)           111.6656         estimate D2E/DX2                !
 ! A69   A(35,33,36)           108.969          estimate D2E/DX2                !
 ! D1    D(10,1,2,3)            57.9156         estimate D2E/DX2                !
 ! D2    D(10,1,2,7)           -66.8305         estimate D2E/DX2                !
 ! D3    D(10,1,2,13)          177.8358         estimate D2E/DX2                !
 ! D4    D(11,1,2,3)           -64.6606         estimate D2E/DX2                !
 ! D5    D(11,1,2,7)           170.5933         estimate D2E/DX2                !
 ! D6    D(11,1,2,13)           55.2596         estimate D2E/DX2                !
 ! D7    D(12,1,2,3)           179.3425         estimate D2E/DX2                !
 ! D8    D(12,1,2,7)            54.5964         estimate D2E/DX2                !
 ! D9    D(12,1,2,13)          -60.7373         estimate D2E/DX2                !
 ! D10   D(2,1,10,19)          173.4503         estimate D2E/DX2                !
 ! D11   D(11,1,10,19)         -65.9027         estimate D2E/DX2                !
 ! D12   D(12,1,10,19)          54.1826         estimate D2E/DX2                !
 ! D13   D(1,2,3,4)            176.9621         estimate D2E/DX2                !
 ! D14   D(1,2,3,9)            -58.7983         estimate D2E/DX2                !
 ! D15   D(1,2,3,14)            53.7735         estimate D2E/DX2                !
 ! D16   D(7,2,3,4)            -60.0329         estimate D2E/DX2                !
 ! D17   D(7,2,3,9)             64.2066         estimate D2E/DX2                !
 ! D18   D(7,2,3,14)           176.7784         estimate D2E/DX2                !
 ! D19   D(13,2,3,4)            56.4145         estimate D2E/DX2                !
 ! D20   D(13,2,3,9)          -179.3459         estimate D2E/DX2                !
 ! D21   D(13,2,3,14)          -66.7742         estimate D2E/DX2                !
 ! D22   D(1,2,7,6)            145.8086         estimate D2E/DX2                !
 ! D23   D(3,2,7,6)             17.3687         estimate D2E/DX2                !
 ! D24   D(13,2,7,6)           -98.5925         estimate D2E/DX2                !
 ! D25   D(2,3,4,5)             43.4135         estimate D2E/DX2                !
 ! D26   D(2,3,4,8)            168.7601         estimate D2E/DX2                !
 ! D27   D(2,3,4,15)           -71.3122         estimate D2E/DX2                !
 ! D28   D(9,3,4,5)            -82.047          estimate D2E/DX2                !
 ! D29   D(9,3,4,8)             43.2995         estimate D2E/DX2                !
 ! D30   D(9,3,4,15)           163.2272         estimate D2E/DX2                !
 ! D31   D(14,3,4,5)           166.6587         estimate D2E/DX2                !
 ! D32   D(14,3,4,8)           -67.9947         estimate D2E/DX2                !
 ! D33   D(14,3,4,15)           51.933          estimate D2E/DX2                !
 ! D34   D(2,3,9,31)           -66.5083         estimate D2E/DX2                !
 ! D35   D(4,3,9,31)            58.4957         estimate D2E/DX2                !
 ! D36   D(14,3,9,31)          175.464          estimate D2E/DX2                !
 ! D37   D(3,4,5,6)              8.6099         estimate D2E/DX2                !
 ! D38   D(3,4,5,16)           127.2698         estimate D2E/DX2                !
 ! D39   D(3,4,5,18)          -111.079          estimate D2E/DX2                !
 ! D40   D(8,4,5,6)           -113.2403         estimate D2E/DX2                !
 ! D41   D(8,4,5,16)             5.4197         estimate D2E/DX2                !
 ! D42   D(8,4,5,18)           127.0709         estimate D2E/DX2                !
 ! D43   D(15,4,5,6)           123.6935         estimate D2E/DX2                !
 ! D44   D(15,4,5,16)         -117.6465         estimate D2E/DX2                !
 ! D45   D(15,4,5,18)            4.0046         estimate D2E/DX2                !
 ! D46   D(3,4,8,27)           159.4876         estimate D2E/DX2                !
 ! D47   D(5,4,8,27)           -76.937          estimate D2E/DX2                !
 ! D48   D(15,4,8,27)           42.9127         estimate D2E/DX2                !
 ! D49   D(4,5,6,7)            -53.9018         estimate D2E/DX2                !
 ! D50   D(4,5,6,17)           176.2879         estimate D2E/DX2                !
 ! D51   D(4,5,6,32)            69.3517         estimate D2E/DX2                !
 ! D52   D(16,5,6,7)          -173.2327         estimate D2E/DX2                !
 ! D53   D(16,5,6,17)           56.957          estimate D2E/DX2                !
 ! D54   D(16,5,6,32)          -49.9791         estimate D2E/DX2                !
 ! D55   D(18,5,6,7)            64.3089         estimate D2E/DX2                !
 ! D56   D(18,5,6,17)          -65.5014         estimate D2E/DX2                !
 ! D57   D(18,5,6,32)         -172.4376         estimate D2E/DX2                !
 ! D58   D(4,5,18,23)         -161.4603         estimate D2E/DX2                !
 ! D59   D(6,5,18,23)           78.7982         estimate D2E/DX2                !
 ! D60   D(16,5,18,23)         -41.4462         estimate D2E/DX2                !
 ! D61   D(5,6,7,2)             39.7871         estimate D2E/DX2                !
 ! D62   D(17,6,7,2)           172.5289         estimate D2E/DX2                !
 ! D63   D(32,6,7,2)           -81.072          estimate D2E/DX2                !
 ! D64   D(5,6,32,31)          -74.6873         estimate D2E/DX2                !
 ! D65   D(7,6,32,31)           53.0999         estimate D2E/DX2                !
 ! D66   D(17,6,32,31)         166.4184         estimate D2E/DX2                !
 ! D67   D(4,8,27,28)          -59.2666         estimate D2E/DX2                !
 ! D68   D(4,8,27,29)           62.8209         estimate D2E/DX2                !
 ! D69   D(4,8,27,30)         -178.2212         estimate D2E/DX2                !
 ! D70   D(3,9,31,32)            3.4351         estimate D2E/DX2                !
 ! D71   D(3,9,31,33)         -177.8173         estimate D2E/DX2                !
 ! D72   D(1,10,19,20)        -179.2019         estimate D2E/DX2                !
 ! D73   D(1,10,19,21)         -60.1489         estimate D2E/DX2                !
 ! D74   D(1,10,19,22)          61.7582         estimate D2E/DX2                !
 ! D75   D(5,18,23,24)         -71.8738         estimate D2E/DX2                !
 ! D76   D(5,18,23,25)          51.1501         estimate D2E/DX2                !
 ! D77   D(5,18,23,26)         169.6249         estimate D2E/DX2                !
 ! D78   D(9,31,32,6)            7.7969         estimate D2E/DX2                !
 ! D79   D(33,31,32,6)        -170.9245         estimate D2E/DX2                !
 ! D80   D(9,31,33,34)          38.9744         estimate D2E/DX2                !
 ! D81   D(9,31,33,35)         -78.2399         estimate D2E/DX2                !
 ! D82   D(9,31,33,36)         162.9819         estimate D2E/DX2                !
 ! D83   D(32,31,33,34)       -142.1667         estimate D2E/DX2                !
 ! D84   D(32,31,33,35)        100.619          estimate D2E/DX2                !
 ! D85   D(32,31,33,36)        -18.1592         estimate D2E/DX2                !
 --------------------------------------------------------------------------------
 Trust Radius=3.00D-01 FncErr=1.00D-07 GrdErr=1.00D-06
 Number of steps in this run=    216 maximum allowed number of steps=    216.
 GradGradGradGradGradGradGradGradGradGradGradGradGradGradGradGradGradGrad

 Leave Link  103 at Sun Jan  8 07:46:32 2017, MaxMem= 13421772800 cpu:         0.3
 (Enter /share/apps//g09/l202.exe)
                          Input orientation:                          
 ---------------------------------------------------------------------
 Center     Atomic      Atomic             Coordinates (Angstroms)
 Number     Number       Type             X           Y           Z
 ---------------------------------------------------------------------
      1          6           0       -1.720180   -1.006870    2.237980
      2          6           0       -0.336620   -0.782430    1.649820
      3          6           0        0.031150    0.650410    1.282490
      4          6           0        1.472900    0.748120    0.772700
      5          6           0        1.795200   -0.413490   -0.210290
      6          6           0        0.513380   -1.189520   -0.544860
      7          8           0       -0.213250   -1.661880    0.484090
      8          8           0        1.647170    2.030450    0.217220
      9          8           0       -0.906600    1.237730    0.285450
     10          8           0       -2.711620   -0.547960    1.341590
     11          1           0       -1.775940   -0.483870    3.214130
     12          1           0       -1.828960   -2.090700    2.434870
     13          1           0        0.405780   -1.117480    2.396190
     14          1           0       -0.116620    1.316750    2.140830
     15          1           0        2.127990    0.591080    1.652510
     16          1           0        2.200800    0.005130   -1.150230
     17          1           0        0.635170   -1.989210   -1.282930
     18          8           0        2.721870   -1.267110    0.429370
     19          6           0       -4.032260   -0.876790    1.790180
     20          1           0       -4.726500   -0.497800    1.032330
     21          1           0       -4.157260   -1.968550    1.886000
     22          1           0       -4.255580   -0.398290    2.758760
     23          6           0        3.446780   -2.146330   -0.449660
     24          1           0        2.811610   -2.952020   -0.850090
     25          1           0        3.899340   -1.581050   -1.280840
     26          1           0        4.238950   -2.593040    0.159920
     27          6           0        3.025010    2.432660    0.128640
     28          1           0        3.492970    2.440080    1.126180
     29          1           0        3.603810    1.773640   -0.539010
     30          1           0        3.019430    3.446400   -0.284020
     31          6           0       -1.001260    0.810050   -0.932080
     32          8           0       -0.375530   -0.188470   -1.439320
     33          6           0       -1.951850    1.547110   -1.797800
     34          1           0       -1.901630    2.620830   -1.586980
     35          1           0       -2.965210    1.199670   -1.542210
     36          1           0       -1.758340    1.333380   -2.852220
 ---------------------------------------------------------------------
                    Distance matrix (angstroms):
                    1          2          3          4          5
     1  C    0.000000
     2  C    1.520047   0.000000
     3  C    2.593587   1.524210   0.000000
     4  C    3.927187   2.527110   1.532343   0.000000
     5  C    4.324815   2.853206   2.544042   1.555469   0.000000
     6  C    3.573003   2.388481   2.637631   2.532013   1.535325
     7  O    2.403332   1.465462   2.458426   2.955418   2.464653
     8  O    4.964658   3.728278   2.377148   1.408296   2.485462
     9  O    3.084237   2.503483   1.489432   2.477731   3.204997
    10  O    1.413176   2.406368   2.993722   4.417428   4.768421
    11  H    1.108831   2.146589   2.878089   4.246568   4.948196
    12  H    1.106926   2.134233   3.507374   4.660900   4.790036
    13  H    2.134706   1.104755   2.122760   2.693497   3.036417
    14  H    2.824899   2.167037   1.096628   2.172946   3.489492
    15  H    4.207687   2.821496   2.130064   1.108093   2.142413
    16  H    5.279981   3.859926   3.322935   2.186214   1.106002
    17  H    4.348502   3.316884   3.730122   3.524256   2.231394
    18  O    4.803187   3.328479   3.412429   2.395611   1.412993
    19  C    2.358635   3.699508   4.370514   5.829441   6.178658
    20  H    3.278827   4.442224   4.900633   6.328687   6.639562
    21  H    2.643497   4.007487   4.976540   6.349680   6.499571
    22  H    2.658916   4.090912   4.653515   6.170427   6.739987
    23  C    5.934581   4.536756   4.742217   3.710553   2.405774
    24  H    5.818669   4.568153   5.025570   4.256363   2.808303
    25  H    6.655132   5.212477   5.149075   3.940770   2.633758
    26  H    6.507342   5.141396   5.430075   4.380626   3.295362
    27  C    6.228684   4.894011   3.670284   2.379398   3.118954
    28  H    6.347795   5.032348   3.900199   2.658639   3.579307
    29  H    6.617233   5.181839   4.164542   2.704265   2.857038
    30  H    6.975385   5.734615   4.381932   3.284681   4.050053
    31  C    3.723886   3.105470   2.448607   3.005258   3.136594
    32  O    4.000050   3.145964   2.877040   3.030994   2.504639
    33  C    4.781632   4.463385   3.771544   4.356004   4.517137
    34  H    5.274794   4.950587   3.981463   4.523559   4.976839
    35  H    4.550687   4.585549   4.154370   5.025886   5.199788
    36  H    5.602532   5.173616   4.556813   4.891164   4.760147
                    6          7          8          9         10
     6  C    0.000000
     7  O    1.345308   0.000000
     8  O    3.497778   4.143149   0.000000
     9  O    2.932115   2.987964   2.674846   0.000000
    10  O    3.790899   2.866701   5.187625   2.749949   0.000000
    11  H    4.457458   3.358992   5.198169   3.506683   2.094280
    12  H    3.895828   2.569036   5.829694   4.068071   2.086719
    13  H    2.943899   2.082233   4.024726   3.424117   3.339868
    14  H    3.727093   3.409745   2.705660   2.018105   3.293927
    15  H    3.256676   3.452888   2.088787   3.390538   4.981557
    16  H    2.154309   3.358208   2.505663   3.638188   5.535968
    17  H    1.095027   1.987290   4.408204   3.905126   4.490691
    18  O    2.415072   2.962055   3.474750   4.411432   5.556270
    19  C    5.119869   4.111821   6.571314   4.062654   1.432987
    20  H    5.515646   4.693088   6.905079   4.261635   2.039093
    21  H    5.322673   4.196977   7.243496   4.838262   2.098650
    22  H    5.855163   4.807413   6.870274   4.473197   2.101091
    23  C    3.086970   3.808202   4.596609   5.562748   6.609785
    24  H    2.912290   3.548841   5.226861   5.715640   6.410073
    25  H    3.487074   4.476037   4.512138   5.787559   7.186738
    26  H    4.043075   4.560069   5.300685   6.416170   7.340921
    27  C    4.458932   5.232392   1.438076   4.112178   6.577558
    28  H    4.984408   5.565467   2.097852   4.637746   6.889973
    29  H    4.281484   5.236361   2.113356   4.616355   6.986497
    30  H    5.276370   6.093828   2.034516   4.540510   7.172339
    31  C    2.538179   2.955831   3.134398   1.293928   3.152633
    32  O    1.610069   2.428328   3.429147   2.300199   3.649659
    33  C    3.890548   4.304343   4.152935   2.351211   3.849979
    34  H    4.630017   5.047927   4.024633   2.531609   4.390198
    35  H    4.336303   4.457314   5.005980   2.753119   3.381541
    36  H    4.104832   4.742346   4.637334   3.252627   4.694276
                   11         12         13         14         15
    11  H    0.000000
    12  H    1.786606   0.000000
    13  H    2.414620   2.437769   0.000000
    14  H    2.673490   3.824825   2.502716   0.000000
    15  H    4.339913   4.843706   2.537370   2.409010   0.000000
    16  H    5.924628   5.786572   4.130308   4.233422   2.864261
    17  H    5.320061   4.461421   3.787936   4.818370   4.183685
    18  O    5.347770   5.040871   3.042210   4.202672   2.302528
    19  C    2.696850   2.596870   4.485686   4.501867   6.334215
    20  H    3.669639   3.591683   5.346440   5.076648   6.968093
    21  H    3.104656   2.395237   4.669684   5.213915   6.790478
    22  H    2.522558   2.976179   4.730430   4.522631   6.553824
    23  C    6.592718   6.013072   4.290114   5.603694   3.694826
    24  H    6.607213   5.750454   4.437554   5.978506   4.391344
    25  H    7.322388   6.846873   5.093173   6.019386   4.057138
    26  H    7.067935   6.499790   4.676684   6.179114   4.101536
    27  C    6.409018   7.024280   4.960408   3.894098   2.553085
    28  H    6.377337   7.110807   4.878514   3.914144   2.357752
    29  H    6.937155   7.300142   5.215493   4.607808   2.894694
    30  H    7.118964   7.845937   5.902855   4.500013   3.563378
    31  C    4.411963   4.520596   4.095426   3.237608   4.064512
    32  O    4.868573   4.554150   4.023014   3.892325   4.053976
    33  C    5.410662   5.582496   5.499819   4.351315   5.428050
    34  H    5.718883   6.195085   5.929987   4.333988   5.554459
    35  H    5.183767   5.285335   5.678358   4.657570   6.042955
    36  H    6.332717   6.299415   6.183521   5.256051   5.995595
                   16         17         18         19         20
    16  H    0.000000
    17  H    2.538937   0.000000
    18  O    2.094098   2.794229   0.000000
    19  C    6.948009   5.697928   6.900900   0.000000
    20  H    7.280384   6.027623   7.512231   1.095417   0.000000
    21  H    7.317037   5.745427   7.066556   1.103062   1.793291
    22  H    7.558293   6.541079   7.407139   1.103169   1.792269
    23  C    2.583030   2.936695   1.439172   7.909782   8.468557
    24  H    3.034454   2.418935   2.117544   7.623396   8.147994
    25  H    2.327674   3.289590   2.099955   8.534484   8.996071
    26  H    3.552610   3.928569   2.032788   8.603265   9.248266
    27  C    2.864914   5.220804   3.724330   7.969833   8.336076
    28  H    3.575014   5.795640   3.850117   8.250552   8.729240
    29  H    2.338729   4.850287   3.310852   8.411865   8.776253
    30  H    3.641815   6.019001   4.776468   8.527521   8.791412
    31  C    3.308878   3.261419   4.475471   4.409432   4.409852
    32  O    2.599717   2.070902   3.774832   4.926980   5.013550
    33  C    4.476779   4.411726   5.892689   4.803852   4.459818
    34  H    4.884933   5.270699   6.368555   5.308309   4.956463
    35  H    5.316788   4.816526   6.504999   4.068796   3.551310
    36  H    4.509524   4.385335   6.132183   5.622050   5.220433
                   21         22         23         24         25
    21  H    0.000000
    22  H    1.799192   0.000000
    23  C    7.956654   8.525019   0.000000
    24  H    7.551063   8.336097   1.101327   0.000000
    25  H    8.665324   9.177146   1.102367   1.802293   0.000000
    26  H    8.594515   9.150297   1.094838   1.785017   1.793111
    27  C    8.604880   8.242500   4.634595   5.477064   4.342920
    28  H    8.862244   8.411997   4.849800   5.783134   4.704080
    29  H    8.950914   8.795600   3.924131   4.801689   3.448419
    30  H    9.248543   8.773022   5.611479   6.426772   5.200302
    31  C    5.061870   5.066852   5.362646   5.357039   5.463961
    32  O    5.341153   5.720375   4.407119   4.259373   4.498767
    33  C    5.549241   5.463881   6.678637   6.620489   6.655002
    34  H    6.181575   5.791513   7.254295   7.335823   7.169433
    35  H    4.817803   4.766222   7.314574   7.147532   7.410989
    36  H    6.253662   6.381065   6.706262   6.577053   6.555340
                   26         27         28         29         30
    26  H    0.000000
    27  C    5.170328   0.000000
    28  H    5.179039   1.101875   0.000000
    29  H    4.467639   1.102304   1.797021   0.000000
    30  H    6.177309   1.094526   1.795991   1.790152   0.000000
    31  C    6.342971   4.468651   5.204953   4.721195   4.851419
    32  O    5.443616   4.570831   5.334450   4.527204   5.106148
    33  C    7.700618   5.409668   6.244447   5.700985   5.532853
    34  H    8.242744   5.220205   6.041160   5.667966   5.157141
    35  H    8.317561   6.339932   7.096972   6.669923   6.515117
    36  H    7.775426   5.742332   6.680472   5.856400   5.821305
                   31         32         33         34         35
    31  C    0.000000
    32  O    1.282916   0.000000
    33  C    1.482009   2.371820   0.000000
    34  H    2.125673   3.200461   1.095373   0.000000
    35  H    2.093123   2.940061   1.101335   1.775641   0.000000
    36  H    2.129315   2.494890   1.093128   1.810771   1.786208
                   36
    36  H    0.000000
 Stoichiometry    C11H19O6(1+)
 Framework group  C1[X(C11H19O6)]
 Deg. of freedom   102
 Full point group                 C1      NOp   1
 Largest Abelian subgroup         C1      NOp   1
 Largest concise Abelian subgroup C1      NOp   1
                         Standard orientation:                         
 ---------------------------------------------------------------------
 Center     Atomic      Atomic             Coordinates (Angstroms)
 Number     Number       Type             X           Y           Z
 ---------------------------------------------------------------------
      1          6           0        2.244265   -1.323911   -1.058489
      2          6           0        0.754452   -1.113266   -0.842547
      3          6           0        0.205150    0.276630   -1.142001
      4          6           0       -1.314789    0.333008   -0.955766
      5          6           0       -1.744075   -0.409502    0.341877
      6          6           0       -0.504280   -0.793582    1.162007
      7          8           0        0.458090   -1.498416    0.539990
      8          8           0       -1.703319    1.686111   -0.993888
      9          8           0        0.861997    1.333433   -0.323387
     10          8           0        2.984822   -0.413870   -0.270790
     11          1           0        2.463016   -1.203805   -2.138873
     12          1           0        2.477640   -2.371216   -0.786505
     13          1           0        0.215083   -1.815077   -1.503627
     14          1           0        0.477344    0.586246   -2.158190
     15          1           0       -1.755054   -0.242663   -1.794002
     16          1           0       -2.370638    0.262754    0.957288
     17          1           0       -0.715233   -1.266149    2.127026
     18          8           0       -2.444396   -1.573745   -0.046242
     19          6           0        4.392168   -0.677292   -0.329410
     20          1           0        4.878713    0.061486    0.316671
     21          1           0        4.620660   -1.691378    0.039598
     22          1           0        4.776101   -0.568940   -1.357922
     23          6           0       -3.266392   -2.159885    0.979418
     24          1           0       -2.668163   -2.646933    1.765439
     25          1           0       -3.927391   -1.401756    1.430564
     26          1           0       -3.874252   -2.920113    0.478191
     27          6           0       -3.096287    1.872537   -1.298762
     28          1           0       -3.342435    1.432050   -2.278308
     29          1           0       -3.748796    1.430976   -0.527836
     30          1           0       -3.258192    2.954588   -1.329433
     31          6           0        0.731343    1.414435    0.961376
     32          8           0        0.093837    0.595148    1.715185
     33          6           0        1.416531    2.560758    1.603880
     34          1           0        1.326994    3.454882    0.977488
     35          1           0        2.485269    2.304984    1.676798
     36          1           0        1.022562    2.731192    2.609200
 ---------------------------------------------------------------------
 Rotational constants (GHZ):      0.6821281      0.3704571      0.3179534
 Leave Link  202 at Sun Jan  8 07:46:32 2017, MaxMem= 13421772800 cpu:         0.6
 (Enter /share/apps//g09/l301.exe)
 Standard basis: 6-311+G(d,p) (5D, 7F)
 Ernie: Thresh=  0.10000D-02 Tol=  0.10000D-05 Strict=F.
 There are   505 symmetry adapted cartesian basis functions of A   symmetry.
 There are   488 symmetry adapted basis functions of A   symmetry.
   488 basis functions,   764 primitive gaussians,   505 cartesian basis functions
    66 alpha electrons       66 beta electrons
       nuclear repulsion energy      1446.1351643591 Hartrees.
 IExCor= 1009 DFT=T Ex+Corr=PBE1PBE ExCW=0 ScaHFX=  0.250000
 ScaDFX=  0.750000  0.750000  1.000000  1.000000 ScalE2=  1.000000  1.000000
 IRadAn=      0 IRanWt=     -1 IRanGd=            0 ICorTp=0 IEmpDi=131
 NAtoms=   36 NActive=   36 NUniq=   36 SFac= 1.00D+00 NAtFMM=   60 NAOKFM=F Big=F
 Integral buffers will be    131072 words long.
 Raffenetti 2 integral format.
 Two-electron integral symmetry is turned on.
 R6Disp:  Grimme-D3 Dispersion energy=       -0.0243587490 Hartrees.
 Nuclear repulsion after empirical dispersion term =     1446.1108056101 Hartrees.
 Leave Link  301 at Sun Jan  8 07:46:32 2017, MaxMem= 13421772800 cpu:         2.1
 (Enter /share/apps//g09/l302.exe)
 NPDir=0 NMtPBC=     1 NCelOv=     1 NCel=       1 NClECP=     1 NCelD=      1
         NCelK=      1 NCelE2=     1 NClLst=     1 CellRange=     0.0.
 One-electron integrals computed using PRISM.
 NBasis=   488 RedAO= T EigKep=  1.33D-06  NBF=   488
 NBsUse=   488 1.00D-06 EigRej= -1.00D+00 NBFU=   488
 Precomputing XC quadrature grid using
 IXCGrd= 4 IRadAn=           0 IRanWt=          -1 IRanGd=           0 AccXCQ= 0.00D+00.
 Generated NRdTot=       0 NPtTot=           0 NUsed=           0 NTot=          32
 NSgBfM=   503   503   503   504   504 MxSgAt=    36 MxSgA2=    36.
 Leave Link  302 at Sun Jan  8 07:46:33 2017, MaxMem= 13421772800 cpu:        11.4
 (Enter /share/apps//g09/l303.exe)
 DipDrv:  MaxL=1.
 Leave Link  303 at Sun Jan  8 07:46:33 2017, MaxMem= 13421772800 cpu:         6.9
 (Enter /share/apps//g09/l401.exe)
 ExpMin= 4.38D-02 ExpMax= 8.59D+03 ExpMxC= 1.30D+03 IAcc=2 IRadAn=         4 AccDes= 0.00D+00
 Harris functional with IExCor= 1009 and IRadAn=       4 diagonalized for initial guess.
 HarFok:  IExCor= 1009 AccDes= 0.00D+00 IRadAn=         4 IDoV= 1 UseB2=F ITyADJ=14
 ICtDFT=  3500011 ScaDFX=  1.000000  1.000000  1.000000  1.000000
 FoFCou: FMM=F IPFlag=           0 FMFlag=      100000 FMFlg1=           0
         NFxFlg=           0 DoJE=T BraDBF=F KetDBF=T FulRan=T
         wScrn=  0.000000 ICntrl=     500 IOpCl=  0 I1Cent=   200000004 NGrid=           0
         NMat0=    1 NMatS0=      1 NMatT0=    0 NMatD0=    1 NMtDS0=    0 NMtDT0=    0
 Petite list used in FoFCou.
 Harris En= -881.105462454554    
 JPrj=0 DoOrth=F DoCkMO=F.
 Leave Link  401 at Sun Jan  8 07:46:35 2017, MaxMem= 13421772800 cpu:        29.7
 (Enter /share/apps//g09/l502.exe)
 Closed shell SCF:
 Using DIIS extrapolation, IDIIS=  1040.
 Integral symmetry usage will be decided dynamically.
 Keep R1 ints in memory in canonical form, NReq=7183787934.
 IVT=      797493 IEndB=      797493 NGot= 13421772800 MDV=  6302761722
 LenX=  6302761722 LenY=  6302506192
 Requested convergence on RMS density matrix=1.00D-08 within 128 cycles.
 Requested convergence on MAX density matrix=1.00D-06.
 Requested convergence on             energy=1.00D-06.
 No special actions if energy rises.
 FoFCou: FMM=F IPFlag=           0 FMFlag=           0 FMFlg1=           0
         NFxFlg=           0 DoJE=F BraDBF=F KetDBF=F FulRan=T
         wScrn=  0.000000 ICntrl=     600 IOpCl=  0 I1Cent=           0 NGrid=           0
         NMat0=    1 NMatS0= 119316 NMatT0=    0 NMatD0=    1 NMtDS0=    0 NMtDT0=    0
 Symmetry not used in FoFCou.

 Cycle   1  Pass 1  IDiag  1:
 E= -880.655255480428    
 DIIS: error= 1.43D-02 at cycle   1 NSaved=   1.
 NSaved= 1 IEnMin= 1 EnMin= -880.655255480428     IErMin= 1 ErrMin= 1.43D-02
 ErrMax= 1.43D-02  0.00D+00 EMaxC= 1.00D-01 BMatC= 3.70D-01 BMatP= 3.70D-01
 IDIUse=3 WtCom= 8.57D-01 WtEn= 1.43D-01
 Coeff-Com:  0.100D+01
 Coeff-En:   0.100D+01
 Coeff:      0.100D+01
 Gap=     0.132 Goal=   None    Shift=    0.000
 GapD=    0.132 DampG=1.000 DampE=0.500 DampFc=0.5000 IDamp=-1.
 Damping current iteration by 5.00D-01
 RMSDP=1.21D-02 MaxDP=1.54D+00              OVMax= 1.26D-01

 Cycle   2  Pass 1  IDiag  1:
 E= -880.780041045146     Delta-E=       -0.124785564718 Rises=F Damp=T
 DIIS: error= 3.82D-03 at cycle   2 NSaved=   2.
 NSaved= 2 IEnMin= 2 EnMin= -880.780041045146     IErMin= 2 ErrMin= 3.82D-03
 ErrMax= 3.82D-03  0.00D+00 EMaxC= 1.00D-01 BMatC= 2.86D-02 BMatP= 3.70D-01
 IDIUse=3 WtCom= 9.62D-01 WtEn= 3.82D-02
 Coeff-Com: -0.134D-01 0.101D+01
 Coeff-En:   0.398D-01 0.960D+00
 Coeff:     -0.113D-01 0.101D+01
 Gap=     0.234 Goal=   None    Shift=    0.000
 RMSDP=5.97D-03 MaxDP=1.01D+00 DE=-1.25D-01 OVMax= 8.39D-02

 Cycle   3  Pass 1  IDiag  1:
 E= -880.912759550689     Delta-E=       -0.132718505542 Rises=F Damp=F
 DIIS: error= 5.34D-03 at cycle   3 NSaved=   3.
 NSaved= 3 IEnMin= 3 EnMin= -880.912759550689     IErMin= 2 ErrMin= 3.82D-03
 ErrMax= 5.34D-03  0.00D+00 EMaxC= 1.00D-01 BMatC= 1.99D-02 BMatP= 2.86D-02
 IDIUse=3 WtCom= 9.47D-01 WtEn= 5.34D-02
 Coeff-Com: -0.920D-01 0.476D+00 0.616D+00
 Coeff-En:   0.000D+00 0.000D+00 0.100D+01
 Coeff:     -0.871D-01 0.451D+00 0.636D+00
 Gap=     0.207 Goal=   None    Shift=    0.000
 RMSDP=1.53D-03 MaxDP=1.40D-01 DE=-1.33D-01 OVMax= 2.06D-02

 Cycle   4  Pass 1  IDiag  1:
 E= -880.924588348867     Delta-E=       -0.011828798178 Rises=F Damp=F
 DIIS: error= 2.59D-03 at cycle   4 NSaved=   4.
 NSaved= 4 IEnMin= 4 EnMin= -880.924588348867     IErMin= 4 ErrMin= 2.59D-03
 ErrMax= 2.59D-03  0.00D+00 EMaxC= 1.00D-01 BMatC= 4.22D-03 BMatP= 1.99D-02
 IDIUse=3 WtCom= 9.74D-01 WtEn= 2.59D-02
 Coeff-Com: -0.468D-01 0.153D+00 0.365D+00 0.529D+00
 Coeff-En:   0.000D+00 0.000D+00 0.151D+00 0.849D+00
 Coeff:     -0.456D-01 0.149D+00 0.359D+00 0.537D+00
 Gap=     0.209 Goal=   None    Shift=    0.000
 RMSDP=9.10D-04 MaxDP=1.30D-01 DE=-1.18D-02 OVMax= 7.35D-03

 Cycle   5  Pass 1  IDiag  1:
 E= -880.927557007585     Delta-E=       -0.002968658719 Rises=F Damp=F
 DIIS: error= 4.51D-04 at cycle   5 NSaved=   5.
 NSaved= 5 IEnMin= 5 EnMin= -880.927557007585     IErMin= 5 ErrMin= 4.51D-04
 ErrMax= 4.51D-04  0.00D+00 EMaxC= 1.00D-01 BMatC= 2.41D-04 BMatP= 4.22D-03
 IDIUse=3 WtCom= 9.95D-01 WtEn= 4.51D-03
 Coeff-Com: -0.174D-01 0.450D-01 0.144D+00 0.279D+00 0.550D+00
 Coeff-En:   0.000D+00 0.000D+00 0.000D+00 0.000D+00 0.100D+01
 Coeff:     -0.174D-01 0.448D-01 0.143D+00 0.278D+00 0.552D+00
 Gap=     0.210 Goal=   None    Shift=    0.000
 RMSDP=1.60D-04 MaxDP=1.35D-02 DE=-2.97D-03 OVMax= 3.60D-03

 Cycle   6  Pass 1  IDiag  1:
 E= -880.927684909829     Delta-E=       -0.000127902244 Rises=F Damp=F
 DIIS: error= 2.76D-04 at cycle   6 NSaved=   6.
 NSaved= 6 IEnMin= 6 EnMin= -880.927684909829     IErMin= 6 ErrMin= 2.76D-04
 ErrMax= 2.76D-04  0.00D+00 EMaxC= 1.00D-01 BMatC= 6.20D-05 BMatP= 2.41D-04
 IDIUse=3 WtCom= 9.97D-01 WtEn= 2.76D-03
 Coeff-Com: -0.604D-02 0.109D-01 0.513D-01 0.121D+00 0.375D+00 0.447D+00
 Coeff-En:   0.000D+00 0.000D+00 0.000D+00 0.000D+00 0.217D+00 0.783D+00
 Coeff:     -0.603D-02 0.109D-01 0.511D-01 0.121D+00 0.375D+00 0.448D+00
 Gap=     0.210 Goal=   None    Shift=    0.000
 RMSDP=9.10D-05 MaxDP=1.15D-02 DE=-1.28D-04 OVMax= 1.42D-03

 Cycle   7  Pass 1  IDiag  1:
 E= -880.927729309817     Delta-E=       -0.000044399987 Rises=F Damp=F
 DIIS: error= 3.52D-05 at cycle   7 NSaved=   7.
 NSaved= 7 IEnMin= 7 EnMin= -880.927729309817     IErMin= 7 ErrMin= 3.52D-05
 ErrMax= 3.52D-05  0.00D+00 EMaxC= 1.00D-01 BMatC= 1.06D-06 BMatP= 6.20D-05
 IDIUse=1 WtCom= 1.00D+00 WtEn= 0.00D+00
 Coeff-Com: -0.188D-02 0.279D-02 0.161D-01 0.424D-01 0.148D+00 0.210D+00
 Coeff-Com:  0.582D+00
 Coeff:     -0.188D-02 0.279D-02 0.161D-01 0.424D-01 0.148D+00 0.210D+00
 Coeff:      0.582D+00
 Gap=     0.210 Goal=   None    Shift=    0.000
 RMSDP=2.04D-05 MaxDP=3.09D-03 DE=-4.44D-05 OVMax= 1.58D-04

 Cycle   8  Pass 1  IDiag  1:
 E= -880.927730154954     Delta-E=       -0.000000845137 Rises=F Damp=F
 DIIS: error= 1.26D-05 at cycle   8 NSaved=   8.
 NSaved= 8 IEnMin= 8 EnMin= -880.927730154954     IErMin= 8 ErrMin= 1.26D-05
 ErrMax= 1.26D-05  0.00D+00 EMaxC= 1.00D-01 BMatC= 9.48D-08 BMatP= 1.06D-06
 IDIUse=1 WtCom= 1.00D+00 WtEn= 0.00D+00
 Coeff-Com: -0.419D-04-0.167D-03 0.233D-03 0.294D-02 0.156D-01 0.325D-01
 Coeff-Com:  0.248D+00 0.701D+00
 Coeff:     -0.419D-04-0.167D-03 0.233D-03 0.294D-02 0.156D-01 0.325D-01
 Coeff:      0.248D+00 0.701D+00
 Gap=     0.210 Goal=   None    Shift=    0.000
 RMSDP=7.52D-06 MaxDP=1.15D-03 DE=-8.45D-07 OVMax= 5.33D-05

 Cycle   9  Pass 1  IDiag  1:
 E= -880.927730217525     Delta-E=       -0.000000062571 Rises=F Damp=F
 DIIS: error= 5.49D-06 at cycle   9 NSaved=   9.
 NSaved= 9 IEnMin= 9 EnMin= -880.927730217525     IErMin= 9 ErrMin= 5.49D-06
 ErrMax= 5.49D-06  0.00D+00 EMaxC= 1.00D-01 BMatC= 1.96D-08 BMatP= 9.48D-08
 IDIUse=1 WtCom= 1.00D+00 WtEn= 0.00D+00
 Coeff-Com:  0.785D-04-0.240D-03-0.854D-03-0.956D-03-0.114D-02 0.354D-02
 Coeff-Com:  0.947D-01 0.390D+00 0.515D+00
 Coeff:      0.785D-04-0.240D-03-0.854D-03-0.956D-03-0.114D-02 0.354D-02
 Coeff:      0.947D-01 0.390D+00 0.515D+00
 Gap=     0.210 Goal=   None    Shift=    0.000
 RMSDP=1.74D-06 MaxDP=2.38D-04 DE=-6.26D-08 OVMax= 2.42D-05

 Cycle  10  Pass 1  IDiag  1:
 E= -880.927730230890     Delta-E=       -0.000000013365 Rises=F Damp=F
 DIIS: error= 1.02D-06 at cycle  10 NSaved=  10.
 NSaved=10 IEnMin=10 EnMin= -880.927730230890     IErMin=10 ErrMin= 1.02D-06
 ErrMax= 1.02D-06  0.00D+00 EMaxC= 1.00D-01 BMatC= 1.25D-09 BMatP= 1.96D-08
 IDIUse=1 WtCom= 1.00D+00 WtEn= 0.00D+00
 Coeff-Com:  0.461D-04-0.101D-03-0.496D-03-0.891D-03-0.274D-02-0.266D-02
 Coeff-Com:  0.168D-01 0.104D+00 0.245D+00 0.641D+00
 Coeff:      0.461D-04-0.101D-03-0.496D-03-0.891D-03-0.274D-02-0.266D-02
 Coeff:      0.168D-01 0.104D+00 0.245D+00 0.641D+00
 Gap=     0.210 Goal=   None    Shift=    0.000
 RMSDP=9.09D-07 MaxDP=1.34D-04 DE=-1.34D-08 OVMax= 5.45D-06

 Cycle  11  Pass 1  IDiag  1:
 E= -880.927730231860     Delta-E=       -0.000000000970 Rises=F Damp=F
 DIIS: error= 2.18D-07 at cycle  11 NSaved=  11.
 NSaved=11 IEnMin=11 EnMin= -880.927730231860     IErMin=11 ErrMin= 2.18D-07
 ErrMax= 2.18D-07  0.00D+00 EMaxC= 1.00D-01 BMatC= 6.46D-11 BMatP= 1.25D-09
 IDIUse=1 WtCom= 1.00D+00 WtEn= 0.00D+00
 Coeff-Com:  0.134D-04-0.266D-04-0.157D-03-0.303D-03-0.104D-02-0.126D-02
 Coeff-Com:  0.177D-02 0.207D-01 0.696D-01 0.267D+00 0.644D+00
 Coeff:      0.134D-04-0.266D-04-0.157D-03-0.303D-03-0.104D-02-0.126D-02
 Coeff:      0.177D-02 0.207D-01 0.696D-01 0.267D+00 0.644D+00
 Gap=     0.210 Goal=   None    Shift=    0.000
 RMSDP=1.33D-07 MaxDP=1.69D-05 DE=-9.70D-10 OVMax= 1.53D-06

 Cycle  12  Pass 1  IDiag  1:
 E= -880.927730231907     Delta-E=       -0.000000000047 Rises=F Damp=F
 DIIS: error= 9.27D-08 at cycle  12 NSaved=  12.
 NSaved=12 IEnMin=12 EnMin= -880.927730231907     IErMin=12 ErrMin= 9.27D-08
 ErrMax= 9.27D-08  0.00D+00 EMaxC= 1.00D-01 BMatC= 1.13D-11 BMatP= 6.46D-11
 IDIUse=1 WtCom= 1.00D+00 WtEn= 0.00D+00
 Coeff-Com:  0.118D-05-0.119D-05-0.230D-04-0.504D-04-0.205D-03-0.313D-03
 Coeff-Com: -0.110D-02-0.203D-02 0.631D-02 0.616D-01 0.337D+00 0.599D+00
 Coeff:      0.118D-05-0.119D-05-0.230D-04-0.504D-04-0.205D-03-0.313D-03
 Coeff:     -0.110D-02-0.203D-02 0.631D-02 0.616D-01 0.337D+00 0.599D+00
 Gap=     0.210 Goal=   None    Shift=    0.000
 RMSDP=4.75D-08 MaxDP=6.05D-06 DE=-4.73D-11 OVMax= 7.77D-07

 Cycle  13  Pass 1  IDiag  1:
 E= -880.927730231906     Delta-E=        0.000000000001 Rises=F Damp=F
 DIIS: error= 2.25D-08 at cycle  13 NSaved=  13.
 NSaved=13 IEnMin=12 EnMin= -880.927730231907     IErMin=13 ErrMin= 2.25D-08
 ErrMax= 2.25D-08  0.00D+00 EMaxC= 1.00D-01 BMatC= 6.44D-13 BMatP= 1.13D-11
 IDIUse=1 WtCom= 1.00D+00 WtEn= 0.00D+00
 Coeff-Com: -0.445D-06 0.137D-05 0.126D-05 0.252D-06-0.117D-04-0.272D-04
 Coeff-Com: -0.605D-03-0.229D-02-0.226D-02 0.484D-02 0.917D-01 0.259D+00
 Coeff-Com:  0.649D+00
 Coeff:     -0.445D-06 0.137D-05 0.126D-05 0.252D-06-0.117D-04-0.272D-04
 Coeff:     -0.605D-03-0.229D-02-0.226D-02 0.484D-02 0.917D-01 0.259D+00
 Coeff:      0.649D+00
 Gap=     0.210 Goal=   None    Shift=    0.000
 RMSDP=1.56D-08 MaxDP=1.64D-06 DE= 1.36D-12 OVMax= 1.63D-07

 Cycle  14  Pass 1  IDiag  1:
 E= -880.927730231910     Delta-E=       -0.000000000004 Rises=F Damp=F
 DIIS: error= 8.51D-09 at cycle  14 NSaved=  14.
 NSaved=14 IEnMin=14 EnMin= -880.927730231910     IErMin=14 ErrMin= 8.51D-09
 ErrMax= 8.51D-09  0.00D+00 EMaxC= 1.00D-01 BMatC= 8.29D-14 BMatP= 6.44D-13
 IDIUse=1 WtCom= 1.00D+00 WtEn= 0.00D+00
 Coeff-Com: -0.308D-06 0.768D-06 0.245D-05 0.392D-05 0.102D-04 0.126D-04
 Coeff-Com: -0.238D-03-0.105D-02-0.175D-02-0.308D-02 0.187D-01 0.833D-01
 Coeff-Com:  0.332D+00 0.573D+00
 Coeff:     -0.308D-06 0.768D-06 0.245D-05 0.392D-05 0.102D-04 0.126D-04
 Coeff:     -0.238D-03-0.105D-02-0.175D-02-0.308D-02 0.187D-01 0.833D-01
 Coeff:      0.332D+00 0.573D+00
 Gap=     0.210 Goal=   None    Shift=    0.000
 RMSDP=9.99D-09 MaxDP=1.95D-06 DE=-4.09D-12 OVMax= 5.18D-08

 Cycle  15  Pass 1  IDiag  1:
 E= -880.927730231882     Delta-E=        0.000000000027 Rises=F Damp=F
 DIIS: error= 2.14D-09 at cycle  15 NSaved=  15.
 NSaved=15 IEnMin=14 EnMin= -880.927730231910     IErMin=15 ErrMin= 2.14D-09
 ErrMax= 2.14D-09  0.00D+00 EMaxC= 1.00D-01 BMatC= 4.35D-15 BMatP= 8.29D-14
 IDIUse=1 WtCom= 1.00D+00 WtEn= 0.00D+00
 Coeff-Com: -0.720D-07 0.164D-06 0.796D-06 0.140D-05 0.486D-05 0.746D-05
 Coeff-Com: -0.330D-04-0.167D-03-0.412D-03-0.161D-02-0.129D-02 0.754D-02
 Coeff-Com:  0.667D-01 0.233D+00 0.696D+00
 Coeff:     -0.720D-07 0.164D-06 0.796D-06 0.140D-05 0.486D-05 0.746D-05
 Coeff:     -0.330D-04-0.167D-03-0.412D-03-0.161D-02-0.129D-02 0.754D-02
 Coeff:      0.667D-01 0.233D+00 0.696D+00
 Gap=     0.210 Goal=   None    Shift=    0.000
 RMSDP=1.73D-08 MaxDP=3.16D-06 DE= 2.73D-11 OVMax= 1.59D-08

 Cycle  16  Pass 1  IDiag  1:
 E= -880.927730231895     Delta-E=       -0.000000000013 Rises=F Damp=F
 DIIS: error= 4.54D-10 at cycle  16 NSaved=  16.
 NSaved=16 IEnMin=14 EnMin= -880.927730231910     IErMin=16 ErrMin= 4.54D-10
 ErrMax= 4.54D-10  0.00D+00 EMaxC= 1.00D-01 BMatC= 2.09D-16 BMatP= 4.35D-15
 IDIUse=1 WtCom= 1.00D+00 WtEn= 0.00D+00
 Large coefficients: NSaved= 16 BigCof=    0.00 CofMax=   10.00 Det=-2.07D-15
 Inversion failed.  Reducing to 15 matrices.
 Coeff-Com: -0.977D-09 0.771D-07 0.124D-06 0.669D-06 0.140D-05 0.997D-06
 Coeff-Com:  0.100D-05-0.398D-04-0.374D-03-0.137D-02-0.186D-02 0.670D-02
 Coeff-Com:  0.521D-01 0.250D+00 0.695D+00
 Coeff:     -0.977D-09 0.771D-07 0.124D-06 0.669D-06 0.140D-05 0.997D-06
 Coeff:      0.100D-05-0.398D-04-0.374D-03-0.137D-02-0.186D-02 0.670D-02
 Coeff:      0.521D-01 0.250D+00 0.695D+00
 Gap=     0.210 Goal=   None    Shift=    0.000
 RMSDP=7.38D-09 MaxDP=1.33D-06 DE=-1.27D-11 OVMax= 3.98D-09

 Cycle  17  Pass 1  IDiag  1:
 E= -880.927730231882     Delta-E=        0.000000000013 Rises=F Damp=F
 DIIS: error= 1.87D-10 at cycle  17 NSaved=  16.
 NSaved=16 IEnMin=13 EnMin= -880.927730231910     IErMin=16 ErrMin= 1.87D-10
 ErrMax= 1.87D-10  0.00D+00 EMaxC= 1.00D-01 BMatC= 4.37D-17 BMatP= 2.09D-16
 IDIUse=1 WtCom= 1.00D+00 WtEn= 0.00D+00
 Large coefficients: NSaved= 16 BigCof=    0.00 CofMax=   10.00 Det=-3.16D-16
 Inversion failed.  Reducing to 15 matrices.
 Coeff-Com:  0.224D-07 0.444D-07 0.161D-06 0.297D-06 0.272D-05 0.907D-05
 Coeff-Com:  0.423D-05-0.585D-04-0.520D-03-0.147D-02-0.280D-02 0.203D-02
 Coeff-Com:  0.513D-01 0.347D+00 0.604D+00
 Coeff:      0.224D-07 0.444D-07 0.161D-06 0.297D-06 0.272D-05 0.907D-05
 Coeff:      0.423D-05-0.585D-04-0.520D-03-0.147D-02-0.280D-02 0.203D-02
 Coeff:      0.513D-01 0.347D+00 0.604D+00
 Gap=     0.210 Goal=   None    Shift=    0.000
 RMSDP=5.33D-09 MaxDP=1.07D-06 DE= 1.32D-11 OVMax= 1.03D-09

 Cycle  18  Pass 1  IDiag  1:
 E= -880.927730231908     Delta-E=       -0.000000000026 Rises=F Damp=F
 DIIS: error= 1.44D-10 at cycle  18 NSaved=  16.
 NSaved=16 IEnMin=12 EnMin= -880.927730231910     IErMin=16 ErrMin= 1.44D-10
 ErrMax= 1.44D-10  0.00D+00 EMaxC= 1.00D-01 BMatC= 3.98D-18 BMatP= 4.37D-17
 IDIUse=1 WtCom= 1.00D+00 WtEn= 0.00D+00
 Large coefficients: NSaved= 16 BigCof=    0.00 CofMax=   10.00 Det=-3.23D-17
 Inversion failed.  Reducing to 15 matrices.
 Coeff-Com:  0.333D-08-0.145D-07 0.296D-09 0.132D-05 0.511D-05 0.802D-05
 Coeff-Com:  0.127D-04-0.112D-03-0.508D-03-0.183D-02-0.300D-02 0.670D-02
 Coeff-Com:  0.122D+00 0.299D+00 0.578D+00
 Coeff:      0.333D-08-0.145D-07 0.296D-09 0.132D-05 0.511D-05 0.802D-05
 Coeff:      0.127D-04-0.112D-03-0.508D-03-0.183D-02-0.300D-02 0.670D-02
 Coeff:      0.122D+00 0.299D+00 0.578D+00
 Gap=     0.210 Goal=   None    Shift=    0.000
 RMSDP=7.63D-09 MaxDP=1.29D-06 DE=-2.64D-11 OVMax= 3.09D-10

 Cycle  19  Pass 1  IDiag  1:
 E= -880.927730231888     Delta-E=        0.000000000020 Rises=F Damp=F
 DIIS: error= 1.25D-10 at cycle  19 NSaved=  16.
 NSaved=16 IEnMin=11 EnMin= -880.927730231910     IErMin=16 ErrMin= 1.25D-10
 ErrMax= 1.25D-10  0.00D+00 EMaxC= 1.00D-01 BMatC= 1.61D-18 BMatP= 3.98D-18
 IDIUse=1 WtCom= 1.00D+00 WtEn= 0.00D+00
 Large coefficients: NSaved= 16 BigCof=    0.00 CofMax=   10.00 Det=-6.82D-18
 Inversion failed.  Reducing to 15 matrices.
 Coeff-Com: -0.153D-07-0.109D-07 0.549D-06 0.209D-05 0.306D-05 0.320D-05
 Coeff-Com: -0.674D-04-0.276D-03-0.101D-02-0.176D-02 0.260D-02 0.583D-01
 Coeff-Com:  0.152D+00 0.365D+00 0.425D+00
 Coeff:     -0.153D-07-0.109D-07 0.549D-06 0.209D-05 0.306D-05 0.320D-05
 Coeff:     -0.674D-04-0.276D-03-0.101D-02-0.176D-02 0.260D-02 0.583D-01
 Coeff:      0.152D+00 0.365D+00 0.425D+00
 Gap=     0.210 Goal=   None    Shift=    0.000
 RMSDP=3.85D-09 MaxDP=7.45D-07 DE= 2.00D-11 OVMax= 2.23D-10

 SCF Done:  E(RPBE1PBE) =  -880.927730232     A.U. after   19 cycles
            NFock= 19  Conv=0.38D-08     -V/T= 2.0043
 KE= 8.771293291878D+02 PE=-4.935256292985D+03 EE= 1.731088427955D+03
 Leave Link  502 at Sun Jan  8 07:51:16 2017, MaxMem= 13421772800 cpu:      1153.6
 (Enter /share/apps//g09/l601.exe)
 Copying SCF densities to generalized density rwf, IOpCl= 0 IROHF=0.

 **********************************************************************

            Population analysis using the SCF density.

 **********************************************************************

 Orbital symmetries:
       Occupied  (A) (A) (A) (A) (A) (A) (A) (A) (A) (A) (A) (A)
                 (A) (A) (A) (A) (A) (A) (A) (A) (A) (A) (A) (A)
                 (A) (A) (A) (A) (A) (A) (A) (A) (A) (A) (A) (A)
                 (A) (A) (A) (A) (A) (A) (A) (A) (A) (A) (A) (A)
                 (A) (A) (A) (A) (A) (A) (A) (A) (A) (A) (A) (A)
                 (A) (A) (A) (A) (A) (A)
       Virtual   (A) (A) (A) (A) (A) (A) (A) (A) (A) (A) (A) (A)
                 (A) (A) (A) (A) (A) (A) (A) (A) (A) (A) (A) (A)
                 (A) (A) (A) (A) (A) (A) (A) (A) (A) (A) (A) (A)
                 (A) (A) (A) (A) (A) (A) (A) (A) (A) (A) (A) (A)
                 (A) (A) (A) (A) (A) (A) (A) (A) (A) (A) (A) (A)
                 (A) (A) (A) (A) (A) (A) (A) (A) (A) (A) (A) (A)
                 (A) (A) (A) (A) (A) (A) (A) (A) (A) (A) (A) (A)
                 (A) (A) (A) (A) (A) (A) (A) (A) (A) (A) (A) (A)
                 (A) (A) (A) (A) (A) (A) (A) (A) (A) (A) (A) (A)
                 (A) (A) (A) (A) (A) (A) (A) (A) (A) (A) (A) (A)
                 (A) (A) (A) (A) (A) (A) (A) (A) (A) (A) (A) (A)
                 (A) (A) (A) (A) (A) (A) (A) (A) (A) (A) (A) (A)
                 (A) (A) (A) (A) (A) (A) (A) (A) (A) (A) (A) (A)
                 (A) (A) (A) (A) (A) (A) (A) (A) (A) (A) (A) (A)
                 (A) (A) (A) (A) (A) (A) (A) (A) (A) (A) (A) (A)
                 (A) (A) (A) (A) (A) (A) (A) (A) (A) (A) (A) (A)
                 (A) (A) (A) (A) (A) (A) (A) (A) (A) (A) (A) (A)
                 (A) (A) (A) (A) (A) (A) (A) (A) (A) (A) (A) (A)
                 (A) (A) (A) (A) (A) (A) (A) (A) (A) (A) (A) (A)
                 (A) (A) (A) (A) (A) (A) (A) (A) (A) (A) (A) (A)
                 (A) (A) (A) (A) (A) (A) (A) (A) (A) (A) (A) (A)
                 (A) (A) (A) (A) (A) (A) (A) (A) (A) (A) (A) (A)
                 (A) (A) (A) (A) (A) (A) (A) (A) (A) (A) (A) (A)
                 (A) (A) (A) (A) (A) (A) (A) (A) (A) (A) (A) (A)
                 (A) (A) (A) (A) (A) (A) (A) (A) (A) (A) (A) (A)
                 (A) (A) (A) (A) (A) (A) (A) (A) (A) (A) (A) (A)
                 (A) (A) (A) (A) (A) (A) (A) (A) (A) (A) (A) (A)
                 (A) (A) (A) (A) (A) (A) (A) (A) (A) (A) (A) (A)
                 (A) (A) (A) (A) (A) (A) (A) (A) (A) (A) (A) (A)
                 (A) (A) (A) (A) (A) (A) (A) (A) (A) (A) (A) (A)
                 (A) (A) (A) (A) (A) (A) (A) (A) (A) (A) (A) (A)
                 (A) (A) (A) (A) (A) (A) (A) (A) (A) (A) (A) (A)
                 (A) (A) (A) (A) (A) (A) (A) (A) (A) (A) (A) (A)
                 (A) (A) (A) (A) (A) (A) (A) (A) (A) (A) (A) (A)
                 (A) (A) (A) (A) (A) (A) (A) (A) (A) (A) (A) (A)
                 (A) (A)
 The electronic state is 1-A.
 Alpha  occ. eigenvalues --  -19.44509 -19.43768 -19.40120 -19.35893 -19.35615
 Alpha  occ. eigenvalues --  -19.33890 -10.56521 -10.50960 -10.46659 -10.45113
 Alpha  occ. eigenvalues --  -10.44088 -10.44066 -10.41144 -10.39032 -10.38809
 Alpha  occ. eigenvalues --  -10.38291 -10.37552  -1.34696  -1.27698  -1.25563
 Alpha  occ. eigenvalues --   -1.21801  -1.20572  -1.19283  -1.01042  -0.97841
 Alpha  occ. eigenvalues --   -0.94300  -0.89712  -0.87130  -0.85212  -0.82848
 Alpha  occ. eigenvalues --   -0.80841  -0.78434  -0.77301  -0.76524  -0.71896
 Alpha  occ. eigenvalues --   -0.70653  -0.67693  -0.66637  -0.66148  -0.65411
 Alpha  occ. eigenvalues --   -0.63898  -0.63219  -0.62518  -0.61789  -0.60780
 Alpha  occ. eigenvalues --   -0.60326  -0.59495  -0.58240  -0.57503  -0.57015
 Alpha  occ. eigenvalues --   -0.56506  -0.56170  -0.55013  -0.54225  -0.53324
 Alpha  occ. eigenvalues --   -0.53038  -0.52446  -0.51664  -0.49032  -0.48206
 Alpha  occ. eigenvalues --   -0.47388  -0.46720  -0.46335  -0.42863  -0.41296
 Alpha  occ. eigenvalues --   -0.40256
 Alpha virt. eigenvalues --   -0.19251  -0.11680  -0.11431  -0.09881  -0.09260
 Alpha virt. eigenvalues --   -0.08223  -0.08002  -0.06982  -0.06663  -0.06478
 Alpha virt. eigenvalues --   -0.06235  -0.05887  -0.05248  -0.04768  -0.04426
 Alpha virt. eigenvalues --   -0.03806  -0.03539  -0.03266  -0.03048  -0.02733
 Alpha virt. eigenvalues --   -0.02186  -0.01783  -0.01481  -0.00908  -0.00248
 Alpha virt. eigenvalues --   -0.00033   0.00411   0.00684   0.01354   0.01901
 Alpha virt. eigenvalues --    0.02315   0.02365   0.02865   0.03068   0.03619
 Alpha virt. eigenvalues --    0.04185   0.04373   0.04761   0.05336   0.05414
 Alpha virt. eigenvalues --    0.06009   0.06235   0.06425   0.06569   0.07068
 Alpha virt. eigenvalues --    0.07499   0.07568   0.07768   0.08709   0.08921
 Alpha virt. eigenvalues --    0.09249   0.09679   0.10134   0.10551   0.11126
 Alpha virt. eigenvalues --    0.11285   0.11577   0.11810   0.12128   0.12438
 Alpha virt. eigenvalues --    0.12890   0.13163   0.13676   0.13746   0.14225
 Alpha virt. eigenvalues --    0.14741   0.15031   0.15630   0.16076   0.16357
 Alpha virt. eigenvalues --    0.17333   0.17570   0.17883   0.17924   0.18700
 Alpha virt. eigenvalues --    0.19815   0.20133   0.20385   0.20779   0.21550
 Alpha virt. eigenvalues --    0.21700   0.22417   0.23154   0.23403   0.23834
 Alpha virt. eigenvalues --    0.23999   0.24372   0.24877   0.25346   0.25808
 Alpha virt. eigenvalues --    0.26102   0.26466   0.26789   0.28214   0.28592
 Alpha virt. eigenvalues --    0.29266   0.29884   0.30368   0.30847   0.31370
 Alpha virt. eigenvalues --    0.31952   0.32391   0.33447   0.34525   0.35345
 Alpha virt. eigenvalues --    0.35631   0.36382   0.37787   0.38208   0.38529
 Alpha virt. eigenvalues --    0.39053   0.41036   0.41444   0.42355   0.43112
 Alpha virt. eigenvalues --    0.44011   0.44699   0.45013   0.45916   0.46286
 Alpha virt. eigenvalues --    0.47218   0.47846   0.48565   0.49363   0.49951
 Alpha virt. eigenvalues --    0.50043   0.50895   0.51776   0.52730   0.52884
 Alpha virt. eigenvalues --    0.53979   0.54315   0.55728   0.56045   0.56346
 Alpha virt. eigenvalues --    0.56921   0.57167   0.58022   0.58170   0.58578
 Alpha virt. eigenvalues --    0.59220   0.59519   0.60383   0.60899   0.61889
 Alpha virt. eigenvalues --    0.62637   0.63272   0.63657   0.64103   0.64360
 Alpha virt. eigenvalues --    0.64770   0.65839   0.68082   0.68413   0.70420
 Alpha virt. eigenvalues --    0.71539   0.73685   0.77003   0.78513   0.81885
 Alpha virt. eigenvalues --    0.83660   0.86353   0.87335   0.87926   0.88956
 Alpha virt. eigenvalues --    0.91377   0.92378   0.93177   0.94435   0.96278
 Alpha virt. eigenvalues --    0.97291   0.98361   0.98589   1.00231   1.01217
 Alpha virt. eigenvalues --    1.02646   1.02965   1.04532   1.05069   1.07297
 Alpha virt. eigenvalues --    1.07934   1.10762   1.10910   1.13654   1.15735
 Alpha virt. eigenvalues --    1.16223   1.16767   1.17745   1.19279   1.21045
 Alpha virt. eigenvalues --    1.21646   1.23767   1.24430   1.25861   1.25991
 Alpha virt. eigenvalues --    1.26594   1.27864   1.29189   1.30269   1.31595
 Alpha virt. eigenvalues --    1.31969   1.32272   1.34233   1.34301   1.34468
 Alpha virt. eigenvalues --    1.35028   1.37119   1.39736   1.40841   1.41735
 Alpha virt. eigenvalues --    1.41915   1.42689   1.44273   1.44524   1.45173
 Alpha virt. eigenvalues --    1.45431   1.45932   1.46727   1.46881   1.47685
 Alpha virt. eigenvalues --    1.48226   1.48848   1.49433   1.49955   1.50733
 Alpha virt. eigenvalues --    1.50991   1.52593   1.53454   1.55206   1.55648
 Alpha virt. eigenvalues --    1.55994   1.56693   1.57695   1.58449   1.58902
 Alpha virt. eigenvalues --    1.59418   1.60626   1.61627   1.62676   1.64155
 Alpha virt. eigenvalues --    1.64207   1.65404   1.66168   1.67291   1.68248
 Alpha virt. eigenvalues --    1.68967   1.70408   1.71957   1.72558   1.74641
 Alpha virt. eigenvalues --    1.76156   1.77244   1.78142   1.80660   1.81047
 Alpha virt. eigenvalues --    1.83292   1.84503   1.85926   1.87074   1.88907
 Alpha virt. eigenvalues --    1.90445   1.91648   1.91918   1.95024   1.95869
 Alpha virt. eigenvalues --    1.97554   1.98207   2.00017   2.00675   2.01578
 Alpha virt. eigenvalues --    2.03316   2.04141   2.04873   2.06666   2.07853
 Alpha virt. eigenvalues --    2.09118   2.09291   2.11354   2.12270   2.13547
 Alpha virt. eigenvalues --    2.15525   2.17491   2.17851   2.20637   2.21390
 Alpha virt. eigenvalues --    2.23239   2.32079   2.32911   2.33203   2.33925
 Alpha virt. eigenvalues --    2.35130   2.37448   2.38335   2.39221   2.40439
 Alpha virt. eigenvalues --    2.41414   2.41859   2.42335   2.42652   2.43118
 Alpha virt. eigenvalues --    2.44269   2.45274   2.45566   2.46627   2.47174
 Alpha virt. eigenvalues --    2.47985   2.48763   2.49891   2.50938   2.52409
 Alpha virt. eigenvalues --    2.55103   2.55504   2.59217   2.59610   2.60349
 Alpha virt. eigenvalues --    2.62431   2.65726   2.67422   2.70793   2.71052
 Alpha virt. eigenvalues --    2.72525   2.73819   2.74645   2.76299   2.77032
 Alpha virt. eigenvalues --    2.79381   2.80957   2.82299   2.86466   2.86752
 Alpha virt. eigenvalues --    2.88128   2.89055   2.90483   2.92544   2.94735
 Alpha virt. eigenvalues --    2.94876   2.96395   2.98768   2.99947   3.00677
 Alpha virt. eigenvalues --    3.02467   3.03662   3.04952   3.05916   3.07410
 Alpha virt. eigenvalues --    3.08134   3.08920   3.10636   3.12585   3.12953
 Alpha virt. eigenvalues --    3.15358   3.15932   3.16516   3.19687   3.21917
 Alpha virt. eigenvalues --    3.24031   3.27734   3.30373   3.35391   3.39730
 Alpha virt. eigenvalues --    3.49896   3.61655   3.66697   3.67469   3.67742
 Alpha virt. eigenvalues --    3.68123   3.68819   3.70086   3.70913   3.71805
 Alpha virt. eigenvalues --    3.73382   3.78236   3.82398   3.86952   3.90953
 Alpha virt. eigenvalues --    3.94147   3.96180   3.97820   3.99290   4.04599
 Alpha virt. eigenvalues --    4.05960   4.07238   4.09381   4.10896   4.13694
 Alpha virt. eigenvalues --    4.19993   4.26296   4.95003   4.97214   5.01812
 Alpha virt. eigenvalues --    5.02891   5.05471   5.06707   5.14447   5.22762
 Alpha virt. eigenvalues --    5.28456   5.31614   5.34056   5.37356   5.48266
 Alpha virt. eigenvalues --    5.58538   5.59452   5.61389   5.63442   5.84295
 Alpha virt. eigenvalues --   23.69604  23.75056  23.76827  23.78589  23.79038
 Alpha virt. eigenvalues --   23.82595  23.88252  23.89744  23.90511  23.91318
 Alpha virt. eigenvalues --   23.91963  49.89298  49.91966  49.95306  49.97015
 Alpha virt. eigenvalues --   49.98594  50.01623
          Condensed to atoms (all electrons):
               1          2          3          4          5          6
     1  C   10.463167  -3.041504   0.748657  -1.478373  -0.705484   0.712249
     2  C   -3.041504  14.246636  -7.816549   4.128643  -1.253076  -1.184409
     3  C    0.748657  -7.816549  21.080949 -11.564480   5.000819  -2.244217
     4  C   -1.478373   4.128643 -11.564480  22.250738 -10.409799   4.514882
     5  C   -0.705484  -1.253076   5.000819 -10.409799  21.678893  -9.442077
     6  C    0.712249  -1.184409  -2.244217   4.514882  -9.442077  15.081728
     7  O   -0.233788   0.393598  -0.242791   0.108355   0.062765   0.128603
     8  O    0.032425   0.022692   0.008950   0.107581  -0.125935  -0.027349
     9  O    0.005956   0.146246  -0.349308   0.353049  -0.400827   0.299378
    10  O    0.002378  -0.037508   0.106283  -0.022544   0.034175  -0.047337
    11  H    0.373672   0.059519  -0.080501   0.011281   0.004914  -0.005119
    12  H    0.343757  -0.016703   0.041988   0.004931  -0.003543   0.000308
    13  H   -0.092538   0.294300   0.121445  -0.053009   0.049290  -0.006993
    14  H   -0.018963   0.024817   0.355597  -0.014837   0.049677  -0.039842
    15  H    0.025148  -0.039679   0.134288   0.346949  -0.156569   0.043688
    16  H    0.009766   0.001046   0.021146   0.017885   0.235424   0.050570
    17  H   -0.014030  -0.003405   0.060420  -0.085590   0.161705   0.208307
    18  O    0.051588   0.022767   0.030139  -0.193529   0.193538   0.072497
    19  C    0.039597  -0.166710   0.013951  -0.023798   0.002306   0.003552
    20  H    0.004282   0.022740  -0.003193  -0.000160   0.000268  -0.001182
    21  H    0.015490  -0.028743  -0.000190  -0.000086  -0.001064   0.002376
    22  H   -0.011814   0.008173   0.002192  -0.000048   0.000573  -0.000869
    23  C    0.016570  -0.050722   0.101056  -0.195752  -0.224696   0.125092
    24  H    0.001518   0.011914  -0.002458  -0.019465  -0.002501   0.000527
    25  H    0.000375  -0.003277  -0.002153   0.041527  -0.056746   0.014366
    26  H   -0.000394  -0.003409  -0.000206   0.000763   0.028103   0.001920
    27  C   -0.023380  -0.021849  -0.140069  -0.262136   0.218033  -0.045966
    28  H    0.001498  -0.004230   0.064039  -0.032340  -0.020095   0.001289
    29  H   -0.000193   0.003288  -0.035055  -0.098538   0.077943   0.000505
    30  H   -0.000030  -0.000667  -0.002680   0.065376  -0.014044   0.001010
    31  C   -0.368761   0.641139  -0.369790  -0.451056   1.074100  -1.710178
    32  O    0.110570   0.080224   0.030292  -0.117700  -0.101397   0.201030
    33  C   -0.156543  -0.333701   0.609253  -0.207321   0.044313  -0.270175
    34  H    0.003978   0.001558   0.002427  -0.005521  -0.001043   0.006469
    35  H   -0.004558  -0.004918   0.001237   0.001402   0.003428  -0.008184
    36  H   -0.000742   0.001470   0.000774  -0.005300   0.003200  -0.010514
               7          8          9         10         11         12
     1  C   -0.233788   0.032425   0.005956   0.002378   0.373672   0.343757
     2  C    0.393598   0.022692   0.146246  -0.037508   0.059519  -0.016703
     3  C   -0.242791   0.008950  -0.349308   0.106283  -0.080501   0.041988
     4  C    0.108355   0.107581   0.353049  -0.022544   0.011281   0.004931
     5  C    0.062765  -0.125935  -0.400827   0.034175   0.004914  -0.003543
     6  C    0.128603  -0.027349   0.299378  -0.047337  -0.005119   0.000308
     7  O    7.812308  -0.005371   0.057241   0.014343   0.018902  -0.024777
     8  O   -0.005371   7.961251   0.010851   0.003406   0.000001   0.000056
     9  O    0.057241   0.010851   7.856746  -0.020860   0.005277  -0.002777
    10  O    0.014343   0.003406  -0.020860   8.252913  -0.055760  -0.043791
    11  H    0.018902   0.000001   0.005277  -0.055760   0.523790  -0.043095
    12  H   -0.024777   0.000056  -0.002777  -0.043791  -0.043095   0.512473
    13  H   -0.034588   0.000485   0.003350   0.007470  -0.005580  -0.001874
    14  H    0.005903   0.001621  -0.059414  -0.002793   0.003509  -0.000064
    15  H   -0.001492  -0.033701   0.006132   0.000044  -0.000033  -0.000018
    16  H    0.007718   0.002909   0.007459  -0.000127  -0.000004  -0.000002
    17  H   -0.057968   0.000409  -0.008123   0.000411   0.000013  -0.000072
    18  O   -0.002852   0.004121  -0.002372   0.000189  -0.000138   0.000136
    19  C   -0.009562   0.000509  -0.003866   0.063141  -0.007993   0.002702
    20  H   -0.000098   0.000004  -0.000440  -0.056472  -0.000406   0.000001
    21  H   -0.000653   0.000001  -0.000867  -0.060669  -0.003888   0.013649
    22  H    0.000161   0.000006   0.000638  -0.045650   0.010563  -0.003773
    23  C   -0.000464   0.008717   0.002528   0.000055  -0.000022  -0.000155
    24  H    0.000722  -0.000151  -0.000056  -0.000011  -0.000000  -0.000001
    25  H    0.000054   0.000461   0.000081   0.000001   0.000000  -0.000000
    26  H   -0.000310   0.000013   0.000003  -0.000001  -0.000000  -0.000000
    27  C    0.000832   0.135848   0.003211   0.000500  -0.000236   0.000096
    28  H   -0.000028  -0.043545   0.000172   0.000001  -0.000001  -0.000000
    29  H   -0.000112  -0.018360  -0.000344  -0.000001   0.000000  -0.000000
    30  H   -0.000017  -0.073816  -0.000388   0.000003   0.000000   0.000000
    31  C    0.002558   0.051262   0.270702   0.113319  -0.002550   0.003910
    32  O   -0.067615   0.028070  -0.135468   0.020126  -0.000238   0.000231
    33  C   -0.044263  -0.064498  -0.353309  -0.109891  -0.005671   0.000496
    34  H    0.000149   0.000362  -0.010381   0.000355  -0.000000  -0.000002
    35  H   -0.000213   0.000088  -0.006655   0.000497   0.000018   0.000017
    36  H    0.000037  -0.000150   0.017594  -0.000139   0.000000   0.000001
              13         14         15         16         17         18
     1  C   -0.092538  -0.018963   0.025148   0.009766  -0.014030   0.051588
     2  C    0.294300   0.024817  -0.039679   0.001046  -0.003405   0.022767
     3  C    0.121445   0.355597   0.134288   0.021146   0.060420   0.030139
     4  C   -0.053009  -0.014837   0.346949   0.017885  -0.085590  -0.193529
     5  C    0.049290   0.049677  -0.156569   0.235424   0.161705   0.193538
     6  C   -0.006993  -0.039842   0.043688   0.050570   0.208307   0.072497
     7  O   -0.034588   0.005903  -0.001492   0.007718  -0.057968  -0.002852
     8  O    0.000485   0.001621  -0.033701   0.002909   0.000409   0.004121
     9  O    0.003350  -0.059414   0.006132   0.007459  -0.008123  -0.002372
    10  O    0.007470  -0.002793   0.000044  -0.000127   0.000411   0.000189
    11  H   -0.005580   0.003509  -0.000033  -0.000004   0.000013  -0.000138
    12  H   -0.001874  -0.000064  -0.000018  -0.000002  -0.000072   0.000136
    13  H    0.455118  -0.002164   0.002049  -0.000300   0.000466  -0.003994
    14  H   -0.002164   0.425283  -0.008187  -0.000091   0.000112  -0.001457
    15  H    0.002049  -0.008187   0.430231   0.001684  -0.000150  -0.003005
    16  H   -0.000300  -0.000091   0.001684   0.478340  -0.006493  -0.038283
    17  H    0.000466   0.000112  -0.000150  -0.006493   0.456504  -0.008135
    18  O   -0.003994  -0.001457  -0.003005  -0.038283  -0.008135   7.847786
    19  C   -0.001557  -0.000047   0.000115  -0.000056  -0.000272   0.000053
    20  H    0.000009   0.000006   0.000000   0.000000   0.000001   0.000000
    21  H    0.000004   0.000010   0.000000   0.000000  -0.000002   0.000000
    22  H   -0.000034  -0.000020  -0.000000   0.000000   0.000000  -0.000001
    23  C   -0.001384  -0.000748   0.005096   0.001673  -0.010572   0.172317
    24  H   -0.000078  -0.000001  -0.000021  -0.004013   0.002781  -0.039409
    25  H    0.000013  -0.000001   0.000158   0.015092  -0.000742  -0.035850
    26  H   -0.000011  -0.000001  -0.000095   0.000047  -0.000228  -0.056489
    27  C    0.001984  -0.000183  -0.001000   0.004680   0.000078  -0.008968
    28  H    0.000011  -0.000375   0.011310  -0.000189  -0.000008   0.001552
    29  H    0.000002   0.000116  -0.002156   0.005165   0.000043  -0.004198
    30  H   -0.000002  -0.000061  -0.000364  -0.000723  -0.000002   0.000204
[...]
 03445,-0.00013076,-0.00010098,-0.00005366,-0.00264446,-0.00177211,0.00
 130622,0.00050958,0.00008246,-0.00017355,0.00118355,-0.00007608,-0.000
 16307,0.00024174,0.00036273,0.00000044,0.04910181,0.08535384,0.7893891
 2,-0.00163197,0.00019068,-0.00136642,0.00112192,0.00382621,0.00664150,
 -0.00959096,0.00176349,-0.01068376,0.00094549,0.00240112,0.00595351,-0
 .01331143,0.03446928,-0.01340580,-0.06676396,-0.01594659,0.01324942,0.
 02528602,-0.00376810,-0.01176718,-0.00026045,-0.00347053,-0.00202260,0
 .02077228,0.02281650,0.04153131,0.00050213,-0.00132356,0.00065765,0.00
 060955,-0.00005024,-0.00004937,-0.00024916,-0.00030566,0.00032577,-0.0
 0058650,-0.00170963,-0.00041812,0.00139074,-0.00089763,0.00074206,0.00
 108863,0.00039836,-0.00061983,0.00114644,-0.00006699,0.00012148,-0.008
 72341,0.01200444,-0.00918462,-0.01258754,-0.00119266,-0.00708532,0.000
 29136,0.00000625,-0.00010328,0.00019544,0.00005619,-0.00001740,-0.0001
 1333,-0.00016989,0.00005600,-0.00001186,0.00004394,0.00004080,0.002041
 48,-0.00380325,-0.00265593,0.00066597,-0.00014723,0.00062997,-0.000114
 90,0.00023504,0.00037018,-0.00029513,0.00031215,0.00019374,0.00003970,
 0.00012540,0.00002317,-0.00011812,-0.00005836,-0.00006067,0.00042144,0
 .00001077,-0.00014238,-0.00004309,-0.00005284,-0.00001109,-0.18912449,
 0.15329624,0.05234899,0.26725867,0.00245969,-0.00042526,0.00198061,-0.
 00011363,-0.01103352,-0.01506104,0.00924086,-0.00671490,0.01832239,-0.
 00124239,-0.00225469,-0.00262623,0.00051090,-0.00689531,0.00021768,0.0
 0467088,-0.02085661,-0.03720259,-0.01479120,-0.02799285,0.05884899,-0.
 00139950,0.00225781,-0.00145402,0.01802917,-0.00717588,-0.06707861,-0.
 00065030,0.00234564,-0.00073022,-0.00098139,0.00017104,0.00022897,0.00
 041638,0.00064131,-0.00064472,0.00064084,0.00311035,0.00241274,-0.0011
 5564,0.00152138,-0.00098447,-0.00136096,0.00030934,0.00126895,0.000523
 48,0.00026253,0.00017405,0.02634252,-0.02440350,0.02034617,0.00326315,
 0.00212203,0.00177617,-0.00008378,0.00028729,-0.00005935,-0.00026863,-
 0.00011968,-0.00000717,0.00022570,0.00022216,-0.00013907,-0.00003319,-
 0.00005787,0.00004331,-0.00119164,0.00045290,0.00069761,-0.00022144,0.
 00085934,-0.00007768,-0.00003313,0.00002298,-0.00016192,0.00017518,0.0
 0019005,0.00020784,0.00103049,0.00053172,-0.00074324,-0.00027549,-0.00
 008450,0.00003042,-0.00041095,-0.00003032,0.00026900,0.00004249,0.0000
 7232,0.00005505,0.15990286,-0.26814470,-0.07489352,-0.23734595,0.39135
 753,-0.00067836,-0.00020801,0.00042135,-0.00381785,0.00201695,0.002015
 23,0.00772021,-0.00200614,0.00897106,0.00203612,0.00109737,-0.00102511
 ,-0.01420783,0.01312476,-0.00717078,-0.00415392,-0.01006238,-0.0769877
 7,-0.00295208,0.03659840,-0.03043305,-0.00136853,-0.00046019,0.0012692
 9,0.03520860,-0.05779838,-0.04807508,0.00169639,0.00068681,-0.00007925
 ,0.00007767,-0.00013548,0.00006065,0.00001653,0.00002826,0.00009613,0.
 00016474,-0.00013648,-0.00099391,-0.00055205,0.00020199,0.00012690,-0.
 00022089,0.00035585,0.00094156,-0.00121925,-0.00076010,0.00067489,0.00
 702020,-0.00804824,0.00812529,-0.00326035,-0.00056135,0.00105015,-0.00
 107423,-0.00013956,0.00021156,0.00012061,-0.00006978,-0.00001099,0.000
 12757,0.00015036,-0.00010927,0.00010353,0.00001781,-0.00006966,0.00019
 998,-0.00144568,-0.00090916,0.00028214,0.00040778,0.00004020,-0.000256
 45,0.00005446,0.00013789,-0.00001588,0.00033624,0.00026564,0.00051217,
 0.00016362,-0.00027019,-0.00006598,0.00001195,0.00007642,-0.00024755,0
 .00005807,-0.00001289,-0.00007275,-0.00011697,-0.00003793,0.06243824,-
 0.09206983,-0.18154158,-0.07081205,0.10558788,0.30890712,-0.00037516,-
 0.00003921,-0.00005739,-0.00091205,0.00108161,0.00053871,0.00522627,0.
 00207930,0.00304428,0.00041497,0.00010271,0.00067247,0.00045922,-0.000
 52681,0.00036743,0.00721506,-0.00311915,0.00567989,0.00073355,0.001472
 60,-0.00383375,-0.00025325,-0.00030114,-0.00012175,0.00560998,0.000327
 14,-0.01519162,0.00087317,-0.00001010,0.00007141,0.00008086,-0.0000373
 2,-0.00000830,0.00007767,-0.00002434,0.00004204,0.00002529,0.00011811,
 -0.00012767,0.00030888,-0.00025111,0.00029316,0.00007868,0.00004083,-0
 .00018839,0.00001027,-0.00001716,-0.00008360,-0.00076570,0.00049189,-0
 .00053878,-0.00032368,0.00030564,0.00001332,-0.00045764,0.00000264,0.0
 0009256,0.00007574,0.00000440,-0.00000171,0.00005110,0.00003983,-0.000
 04175,0.00004866,0.00001374,-0.00004122,0.00017397,-0.00013274,-0.0001
 6320,-0.00001652,-0.00003994,0.00001335,0.00000188,-0.00000817,0.00003
 298,-0.00002477,0.00000520,-0.00001773,0.00040672,0.00025550,-0.000004
 04,-0.00006503,-0.00000338,-0.00004170,-0.00003204,0.00000613,0.000007
 67,0.00000087,-0.00001168,0.00001407,-0.13504936,0.04368488,-0.0506169
 6,-0.01854763,0.03132414,-0.00780985,0.50718520,0.00011881,0.00009417,
 0.00011332,-0.00064335,0.00003199,-0.00121100,0.00201791,0.00209260,-0
 .00203652,0.00068367,-0.00054131,0.00023996,-0.00022536,-0.00198670,0.
 00045947,0.00384044,0.00792580,-0.00431430,-0.00133316,0.00002813,0.00
 078041,-0.00015867,0.00017339,-0.00007879,-0.00233507,0.00899174,-0.00
 416817,-0.00002846,0.00002828,-0.00003378,-0.00005176,-0.00000016,0.00
 003942,0.00003214,0.00002550,-0.00004494,0.00013942,0.00025502,0.00016
 288,-0.00015930,0.00020607,-0.00023623,0.00000926,0.00005440,-0.000051
 05,-0.00004125,0.00001643,-0.00004513,0.00004678,-0.00009849,0.0001110
 5,0.00118954,-0.00006683,0.00070862,0.00007721,0.00002676,0.00000708,-
 0.00002287,-0.00002381,-0.00000067,0.00000101,0.00001630,-0.00001540,-
 0.00001359,-0.00000098,0.00000752,-0.00023169,0.00029965,0.00021948,-0
 .00004909,0.00001259,-0.00006782,0.00001110,-0.00001434,-0.00003109,0.
 00002522,-0.00001904,-0.00000695,0.00004208,0.00001593,-0.00003152,-0.
 00002012,-0.00000360,-0.00000568,-0.00002223,-0.00001278,0.00003186,-0
 .00000341,0.00002651,0.00001986,0.04816008,-0.12798026,0.05523380,0.03
 457692,-0.02513529,0.01049181,-0.00140422,0.56990173,-0.00014281,-0.00
 004354,0.00013392,-0.00063280,-0.00073215,-0.00158107,0.00314299,-0.00
 382795,0.00260809,-0.00009256,0.00050513,-0.00145154,-0.00037112,-0.00
 101210,-0.00004084,0.00166872,0.00106491,-0.00370188,-0.00095546,-0.00
 018493,0.00228961,-0.00010096,-0.00024866,0.00033742,-0.03259793,0.017
 07474,-0.04515985,0.00015560,0.00015389,0.00005730,-0.00006160,-0.0000
 0379,0.00006698,0.00009775,0.00005175,-0.00001122,0.00021846,0.0004491
 2,0.00007290,-0.00074952,0.00055300,-0.00067075,-0.00035966,-0.0000636
 4,0.00037882,-0.00002592,0.00010618,0.00006292,0.00058347,-0.00051575,
 0.00048877,0.00042860,0.00013313,0.00040663,-0.00019285,-0.00008230,0.
 00006287,-0.00000384,-0.00003456,-0.00000533,0.00000851,0.00003544,-0.
 00002769,0.00001610,0.00000169,-0.00000105,-0.00004509,0.00001259,0.00
 004240,-0.00001314,0.00005396,-0.00001068,-0.00000248,0.00000182,0.000
 00090,0.00001034,0.00001236,0.00000203,0.00014371,0.00002230,0.0000177
 8,0.00001270,0.00002085,0.00000424,-0.00003840,-0.00000265,0.00000767,
 -0.00005319,-0.00002727,0.00001214,-0.05772513,0.05520148,-0.13667255,
 0.01004203,-0.01204388,0.01376061,-0.03005658,0.03249540,0.60054144,0.
 00005433,-0.00002562,-0.00001522,0.00012971,0.00003162,0.00027851,-0.0
 0060272,-0.00017665,-0.00033366,0.00004162,0.00044435,-0.00011501,0.00
 008936,0.00045304,-0.00003119,-0.00085716,-0.00096768,0.00087122,0.000
 35438,0.00002859,-0.00037922,0.00023680,-0.00030592,0.00021209,0.00060
 288,-0.00060114,0.00241896,-0.00012512,0.00003853,0.00003549,0.0000179
 2,-0.00000481,0.00000007,-0.00003169,-0.00000111,-0.00000302,-0.000023
 91,-0.00006525,-0.00002835,0.00003047,-0.00000642,-0.00000449,0.000019
 80,-0.00006568,0.00002999,-0.00002065,-0.00000811,0.00002284,-0.000117
 31,0.00010264,-0.00008181,-0.00022380,-0.00010598,-0.00014578,0.000094
 18,-0.00000809,-0.00001666,-0.00001011,-0.00003220,-0.00002602,-0.0000
 1920,0.00001044,-0.00000300,-0.00000313,-0.00000835,0.00002432,0.00003
 549,-0.00001393,-0.00002134,0.00000772,-0.00001521,0.00000581,-0.00000
 308,0.00000330,0.00000540,-0.00000130,-0.00000266,-0.00000091,-0.00018
 861,-0.00007255,0.00002887,0.00003882,-0.00000538,0.00002931,0.0000440
 3,-0.00000647,-0.00002053,-0.00005521,-0.00002811,-0.00001207,-0.00268
 979,0.02335100,0.00613213,-0.00338251,0.00379080,-0.00314745,-0.038611
 22,-0.00041623,-0.00115107,0.04495536,0.00003140,-0.00001546,0.0000683
 5,-0.00021629,-0.00005689,-0.00037046,0.00075495,0.00034194,0.00057327
 ,0.00006844,-0.00007290,-0.00008460,-0.00001764,-0.00027874,0.00003765
 ,0.00015060,0.00088442,-0.00067724,-0.00019564,-0.00005070,0.00030132,
 -0.00016582,-0.00003159,-0.00003658,-0.00066026,0.00156853,-0.00182692
 ,0.00003406,0.00008166,-0.00003119,-0.00000988,-0.00000380,0.00000479,
 0.00000706,0.00001758,-0.00001237,0.00003328,0.00011167,0.00001158,-0.
 00000040,0.00001050,-0.00000478,-0.00003478,0.00001167,0.00000982,-0.0
 0000716,0.00001476,-0.00000191,0.00005335,-0.00005163,0.00004539,0.000
 09025,0.00004796,0.00008283,-0.00005750,-0.00001358,0.00002860,-0.0000
 0757,-0.00001596,-0.00000597,0.00000190,0.00001692,-0.00000744,0.00000
 349,-0.00000413,-0.00000148,-0.00000834,0.00000828,0.00000688,-0.00000
 590,0.00000543,-0.00000500,0.00000127,-0.00000208,0.00000057,0.0000020
 3,0.00000102,-0.00000249,0.00012075,0.00009794,-0.00003547,-0.00002786
 ,-0.00000246,-0.00000795,-0.00002738,-0.00000765,0.00000794,-0.0000083
 1,0.00000160,0.00001321,-0.00134293,-0.01681908,-0.00549385,0.00151438
 ,-0.00138823,0.00210206,0.00357246,-0.30571640,-0.07540164,-0.00427721
 ,0.32885611,-0.00008404,0.00000626,-0.00000407,-0.00002559,-0.00000459
 ,0.00020318,0.00006232,-0.00016656,0.00020195,-0.00002139,0.00014475,-
 0.00002401,0.00011883,0.00027550,-0.00002604,-0.00055969,-0.00114369,0
 .00095150,0.00018664,0.00001446,-0.00028743,0.00013067,-0.00010518,-0.
 00003329,-0.00113184,-0.00022043,-0.00146340,0.00016203,-0.00005895,-0
 .00002454,0.00001222,-0.00000009,-0.00001774,0.00001128,-0.00001416,0.
 00000420,-0.00000642,0.00000562,-0.00002984,-0.00004489,0.00001681,-0.
 00003514,-0.00001272,-0.00000984,0.00001095,0.00002026,0.00000357,0.00
 000067,-0.00008330,0.00007067,-0.00007595,-0.00023762,0.00003930,-0.00
 014570,-0.00008626,0.00001712,0.00000359,0.00002278,0.00001228,0.00001
 126,0.00001691,-0.00000538,-0.00000619,0.00001241,0.00001034,-0.000019
 44,0.00005656,-0.00007020,-0.00004964,0.00000835,-0.00000259,0.0000109
 9,-0.00000176,0.00000156,0.00000765,-0.00000570,0.00000395,0.00000105,
 -0.00002440,-0.00003519,0.00002494,0.00000373,0.00001059,-0.00000867,0
 .00002490,-0.00000651,-0.00000565,-0.00000298,0.00000812,0.00001916,0.
 00586876,0.01948211,0.00667032,-0.00412831,0.00278426,-0.00065693,-0.0
 0174671,-0.08017223,-0.07449332,0.00274033,0.08284366,0.07272993,-0.00
 006973,0.00009328,-0.00005219,-0.00006703,0.00009696,-0.00006729,-0.00
 003733,0.00097764,-0.00094379,0.00018692,-0.00014626,0.00024845,-0.000
 03524,-0.00006588,0.00006063,0.00013671,0.00065982,0.00010274,0.000110
 33,0.00005025,-0.00027354,0.00007773,0.00007352,-0.00002601,0.00152567
 ,0.00080288,0.00261482,-0.00018835,-0.00010569,0.00018430,0.00002421,0
 .00000027,0.00002529,0.00000233,-0.00002482,-0.00000708,-0.00000164,-0
 .00001915,0.00001689,0.00004903,-0.00003251,0.00003212,0.00007412,0.00
 001510,-0.00005395,-0.00001124,-0.00001722,-0.00001084,-0.00010517,0.0
 0007116,-0.00006664,0.00013466,-0.00007729,0.00004800,0.00038895,0.000
 01341,-0.00000342,-0.00003967,0.00000334,0.00000461,-0.00004057,-0.000
 01774,0.00000676,-0.00006347,0.00000178,0.00001840,-0.00004367,0.00006
 238,0.00004366,-0.00000443,-0.00000451,-0.00001113,0.00000127,-0.00000
 207,-0.00000853,0.00000529,-0.00000620,-0.00000078,-0.00007873,-0.0000
 4230,0.00001250,0.00000940,-0.00000101,0.00000276,0.00000956,-0.000001
 68,0.00000096,0.00000364,0.00000848,-0.00000133,-0.02576640,-0.0069052
 0,0.00084652,0.00140900,0.00032557,-0.00200991,-0.27079856,-0.09399292
 ,0.03307126,0.00176194,0.00110354,0.00012553,0.29644507,0.00027063,-0.
 00002697,0.00008349,0.00016933,-0.00017619,-0.00009875,-0.00048705,-0.
 00018375,-0.00024396,-0.00010884,-0.00013742,-0.00003231,-0.00016579,0
 .00012374,-0.00011142,-0.00123460,0.00007429,-0.00107785,-0.00033221,-
 0.00038905,0.00085318,0.00004827,0.00013126,-0.00004012,-0.00052812,0.
 00029128,0.00079354,-0.00024010,-0.00002383,-0.00034288,-0.00005193,0.
 00001736,-0.00005723,-0.00003651,0.00001627,-0.00001479,-0.00001756,-0
 .00001291,0.00001598,-0.00002626,0.00001882,-0.00000888,0.00000400,0.0
 0002231,0.00000538,-0.00000415,-0.00001155,0.00001494,0.00022507,-0.00
 015848,0.00015057,0.00006116,-0.00006095,0.00000444,-0.00004211,-0.000
 02492,0.00004666,-0.00005314,0.00007255,0.00006206,0.00001619,-0.00002
 326,0.00002202,-0.00001831,0.00001044,-0.00006296,-0.00003068,0.000023
 66,0.00003172,0.00000610,0.00000722,-0.00000220,-0.00000035,0.00000103
 ,-0.00000468,0.00000585,0.00000004,0.00000259,-0.00003756,-0.00004174,
 0.00001681,0.00000706,0.00000742,-0.00000413,0.00000272,0.00000018,0.0
 0000158,0.00001819,0.00001415,0.00000458,0.01817893,0.00738736,-0.0048
 0620,0.00143559,-0.00374461,0.00118823,-0.09120131,-0.07568155,0.01633
 601,-0.02869487,-0.00942111,0.00423815,0.09913537,0.08196097,-0.000533
 30,0.00007401,-0.00011531,-0.00033874,0.00006043,-0.00007269,0.0010254
 7,0.00066153,0.00013003,0.00016352,0.00002395,0.00004890,0.00010074,-0
 .00010128,-0.00000745,0.00040351,-0.00001132,0.00060227,0.00017759,0.0
 0008291,-0.00042193,-0.00004909,-0.00005452,0.00002870,0.00038757,0.00
 130081,-0.00313658,0.00049513,-0.00031821,0.00041642,0.00006649,-0.000
 01595,0.00006663,0.00009669,-0.00005896,0.00005703,0.00003530,0.000095
 95,-0.00001646,-0.00001913,-0.00001379,-0.00000757,-0.00000884,-0.0000
 0141,-0.00000868,-0.00000227,0.00001598,-0.00000369,-0.00007404,0.0000
 7838,-0.00008388,-0.00003734,0.00003690,-0.00000347,0.00006402,0.00013
 695,-0.00011945,0.00013029,0.00005569,-0.00001898,0.00002046,-0.000059
 04,0.00002854,0.00000328,-0.00000654,0.00003561,0.00002218,0.00000205,
 -0.00001382,-0.00000741,-0.00000504,0.00000406,0.00000006,0.00000025,0
 .00000189,-0.00000462,-0.00000005,-0.00000081,0.00008060,0.00006583,-0
 .00003435,-0.00002307,-0.00000712,0.00000168,-0.00002098,0.00000127,-0
 .00000154,-0.00000511,-0.00001108,-0.00000372,-0.01941114,-0.01118548,
 0.00286968,0.00014129,0.00104689,-0.00052593,0.03083855,0.01623537,-0.
 04568851,-0.00820547,-0.00294072,0.00010020,-0.03366532,-0.01642535,0.
 04729774,-0.00014229,0.00002725,0.00000590,-0.00024592,-0.00017031,-0.
 00038808,0.00059971,-0.00009707,-0.00028104,0.00012288,0.00013959,-0.0
 0024972,-0.00003910,-0.00004119,-0.00009940,-0.00014782,0.00037615,-0.
 00056669,-0.00015496,-0.00011250,0.00052288,-0.00003785,-0.00009087,0.
 00023847,-0.00376908,0.00294805,-0.00450880,0.00009935,-0.00007948,0.0
 0006756,0.00000265,0.00000025,0.00002193,0.00003139,-0.00000740,0.0000
 0970,0.00005762,0.00013248,0.00000372,-0.00016967,0.00011627,-0.000150
 77,-0.00005098,-0.00002257,0.00006858,-0.00004597,0.00001442,0.0000240
 8,0.00008588,-0.00002435,0.00005117,0.00005363,-0.00005514,0.00009216,
 0.00002553,0.00003903,-0.00003606,0.00003659,0.00002648,-0.00000668,0.
 00000960,-0.00001930,0.00001041,-0.00000167,-0.00000039,0.00000407,0.0
 0000213,0.00002525,0.00000661,-0.00000107,0.00000711,-0.00000471,-0.00
 000925,-0.00000157,0.00000010,0.00000255,0.00000026,0.00000403,0.00000
 583,-0.00000185,-0.00002558,-0.00000002,-0.00000205,0.00002060,-0.0000
 2522,0.00001062,-0.00001107,-0.00001892,-0.00002896,-0.00001638,0.0050
 4444,-0.00345227,-0.02299340,0.00027016,-0.00135588,0.00021853,-0.0628
 2541,0.01018117,0.07577187,-0.00154827,-0.00047234,-0.00138092,-0.0050
 0462,0.00372698,0.02815313,0.06778815,0.00000052,0.00000281,-0.0000352
 3,-0.00003490,0.00014397,0.00006698,0.00003041,0.00128711,-0.00037986,
 0.00004404,-0.00006127,0.00033149,0.00006004,0.00015583,-0.00001688,-0
 .00026229,-0.00013998,0.00034090,0.00009062,-0.00007525,-0.00025843,-0
 .00000004,-0.00002497,0.00000076,0.00360780,-0.00081564,0.00386653,-0.
 00011024,-0.00006419,0.00004343,0.00001837,0.00000108,-0.00000315,-0.0
 0001957,-0.00001360,0.00001271,-0.00002419,-0.00002235,-0.00002236,0.0
 0019367,-0.00013524,0.00015907,0.00009399,-0.00000624,-0.00008094,0.00
 000598,-0.00001082,-0.00000314,-0.00000144,0.00000764,-0.00003117,-0.0
 0002948,-0.00007529,-0.00006701,0.00010940,0.00001123,-0.00001451,-0.0
 0000720,0.00000489,-0.00000669,-0.00001585,-0.00001316,0.00001402,-0.0
 0001481,-0.00000747,0.00001132,-0.00001063,0.00003835,0.00001647,-0.00
 000349,-0.00001722,0.00000120,0.00000528,0.00000115,-0.00000152,-0.000
 00020,-0.00000499,-0.00000347,-0.00004312,0.00001358,-0.00000493,0.000
 00237,-0.00001104,0.00000796,0.00000340,0.00000379,-0.00000552,-0.0000
 0228,-0.00001094,-0.00001899,-0.01060443,0.00097331,0.01595343,0.00082
 615,-0.00027999,-0.00066209,0.01219902,-0.05294148,-0.03006095,0.00766
 129,0.00187443,-0.02797350,-0.00203232,-0.00006208,0.01124070,-0.01173
 588,0.05027404,0.00000540,-0.00000219,0.00003797,-0.00011789,-0.000179
 03,-0.00041526,0.00071505,-0.00034157,0.00053319,0.00000511,0.00007262
 ,-0.00028784,-0.00008810,-0.00015719,-0.00007674,-0.00060263,0.0010115
 6,-0.00066546,-0.00020836,-0.00030670,0.00079714,0.00003010,-0.0000002
 2,0.00017645,-0.00280191,0.00242610,-0.00240517,-0.00000708,0.00002925
 ,0.00000978,-0.00001651,0.00000389,0.00001107,0.00001157,0.00000940,-0
 .00000918,0.00004575,0.00009242,0.00004404,-0.00011377,0.00008493,-0.0
 0009519,-0.00004773,-0.00002890,0.00007966,-0.00001576,0.00002308,0.00
 002277,0.00005137,-0.00003403,0.00004748,0.00014190,-0.00004385,0.0000
 8785,0.00000440,0.00000143,-0.00001012,0.00000144,-0.00000300,-0.00000
 247,0.00000382,0.00000168,-0.00000302,0.00000103,0.00000051,0.00000469
 ,-0.00003351,0.00004066,0.00003969,-0.00000306,0.00000888,-0.00000548,
 -0.00000109,0.00000147,-0.00000548,0.00000572,-0.00000191,0.00000139,-
 0.00004677,-0.00002251,-0.00000887,0.00001072,-0.00000047,0.00001435,-
 0.00000875,0.00000011,-0.00000264,-0.00001357,-0.00001097,-0.00000630,
 0.00659068,-0.00333348,-0.01782148,0.00146528,-0.00239122,0.00175756,0
 .06897079,-0.02480601,-0.31183917,0.00090695,0.00081013,-0.00354457,-0
 .00026442,-0.00053824,-0.00140457,-0.07457618,0.02758336,0.33494393\\-
 0.00002012,0.00000567,-0.00000771,0.00000253,-0.00001122,-0.00002506,0
 .00007261,-0.00002150,0.00005818,-0.00004574,0.00002351,-0.00001047,-0
 .00002952,-0.00003250,0.00000029,-0.00005062,0.00003114,0.00001062,0.0
 0002746,0.00004358,-0.00001758,0.00000264,-0.00001683,0.00000332,-0.00
 000308,-0.00003289,-0.00011693,0.00001258,-0.00000499,0.00002195,0.000
 00009,-0.00000040,-0.00000874,0.00000416,0.00000271,-0.00000015,-0.000
 00147,-0.00000302,0.00000199,-0.00000106,0.00000815,-0.00001323,-0.000
 00200,-0.00000974,0.00000006,-0.00000327,0.00000747,0.00000132,0.00001
 495,-0.00000259,0.00001249,0.00000317,-0.00001299,-0.00000267,0.000002
 31,0.00000159,-0.00000324,0.00000254,0.00000253,0.00000419,-0.00000095
 ,0.00000960,-0.00000280,-0.00000059,0.00000282,-0.00000723,-0.00000802
 ,-0.00000155,0.00000282,0.00000765,-0.00000372,0.00000320,-0.00000262,
 -0.00000509,0.00000451,-0.00000522,-0.00000238,-0.00000567,0.00000568,
 0.00000213,0.00000339,-0.00000161,-0.00000243,-0.00000512,-0.00000224,
 -0.00000143,0.00000227,0.00000417,-0.00000699,0.00000360,0.00003710,0.
 00003379,0.00008221,-0.00000604,-0.00001091,0.00002285,-0.00002597,0.0
 0000305,-0.00001396,0.00000443,-0.00000480,0.00000173,0.00000418,0.000
 00762,-0.00000569,0.00000185,0.00000263,0.00000528\\\@


 GOD GAVE US TWO ENDS... ONE TO SIT ON...    
 AND THE OTHER TO THINK WITH...              
 YOUR SUCCESS DEPENDS UPON WHICH END YOU     
 USE THE MOST...                             
                                             
 IT'S A CASE OF HEADS YOU WIN TAILS YOU LOSE.
          SOURCE UNKNOWN(IT'S JUST AS WELL.) 
 Job cpu time:       0 days  6 hours 10 minutes 57.0 seconds.
 File lengths (MBytes):  RWF=    766 Int=      0 D2E=      0 Chk=     19 Scr=      1
 Normal termination of Gaussian 09 at Sun Jan  8 09:30:56 2017.
