 Entering Gaussian System, Link 0=g09
 Initial command:
 /share/apps//g09/l1.exe "/scratch/Gau-36749.inp" -scrdir="/scratch/"
 Entering Link 1 = /share/apps//g09/l1.exe PID=     36750.
  
 Copyright (c) 1988,1990,1992,1993,1995,1998,2003,2009,2013,
            Gaussian, Inc.  All Rights Reserved.
  
 This is part of the Gaussian(R) 09 program.  It is based on
 the Gaussian(R) 03 system (copyright 2003, Gaussian, Inc.),
 the Gaussian(R) 98 system (copyright 1998, Gaussian, Inc.),
 the Gaussian(R) 94 system (copyright 1995, Gaussian, Inc.),
 the Gaussian 92(TM) system (copyright 1992, Gaussian, Inc.),
 the Gaussian 90(TM) system (copyright 1990, Gaussian, Inc.),
 the Gaussian 88(TM) system (copyright 1988, Gaussian, Inc.),
 the Gaussian 86(TM) system (copyright 1986, Carnegie Mellon
 University), and the Gaussian 82(TM) system (copyright 1983,
 Carnegie Mellon University). Gaussian is a federally registered
 trademark of Gaussian, Inc.
  
 This software contains proprietary and confidential information,
 including trade secrets, belonging to Gaussian, Inc.
  
 This software is provided under written license and may be
 used, copied, transmitted, or stored only in accord with that
 written license.
  
 The following legend is applicable only to US Government
 contracts under FAR:
  
                    RESTRICTED RIGHTS LEGEND
  
 Use, reproduction and disclosure by the US Government is
 subject to restrictions as set forth in subparagraphs (a)
 and (c) of the Commercial Computer Software - Restricted
 Rights clause in FAR 52.227-19.
  
 Gaussian, Inc.
 340 Quinnipiac St., Bldg. 40, Wallingford CT 06492
  
  
 ---------------------------------------------------------------
 Warning -- This program may not be used in any manner that
 competes with the business of Gaussian, Inc. or will provide
 assistance to any competitor of Gaussian, Inc.  The licensee
 of this program is prohibited from giving any competitor of
 Gaussian, Inc. access to this program.  By using this program,
 the user acknowledges that Gaussian, Inc. is engaged in the
 business of creating and licensing software in the field of
 computational chemistry and represents and warrants to the
 licensee that it is not a competitor of Gaussian, Inc. and that
 it will not use this program in any manner prohibited above.
 ---------------------------------------------------------------
  

 Cite this work as:
 Gaussian 09, Revision D.01,
 M. J. Frisch, G. W. Trucks, H. B. Schlegel, G. E. Scuseria, 
 M. A. Robb, J. R. Cheeseman, G. Scalmani, V. Barone, B. Mennucci, 
 G. A. Petersson, H. Nakatsuji, M. Caricato, X. Li, H. P. Hratchian, 
 A. F. Izmaylov, J. Bloino, G. Zheng, J. L. Sonnenberg, M. Hada, 
 M. Ehara, K. Toyota, R. Fukuda, J. Hasegawa, M. Ishida, T. Nakajima, 
 Y. Honda, O. Kitao, H. Nakai, T. Vreven, J. A. Montgomery, Jr., 
 J. E. Peralta, F. Ogliaro, M. Bearpark, J. J. Heyd, E. Brothers, 
 K. N. Kudin, V. N. Staroverov, T. Keith, R. Kobayashi, J. Normand, 
 K. Raghavachari, A. Rendell, J. C. Burant, S. S. Iyengar, J. Tomasi, 
 M. Cossi, N. Rega, J. M. Millam, M. Klene, J. E. Knox, J. B. Cross, 
 V. Bakken, C. Adamo, J. Jaramillo, R. Gomperts, R. E. Stratmann, 
 O. Yazyev, A. J. Austin, R. Cammi, C. Pomelli, J. W. Ochterski, 
 R. L. Martin, K. Morokuma, V. G. Zakrzewski, G. A. Voth, 
 P. Salvador, J. J. Dannenberg, S. Dapprich, A. D. Daniels, 
 O. Farkas, J. B. Foresman, J. V. Ortiz, J. Cioslowski, 
 and D. J. Fox, Gaussian, Inc., Wallingford CT, 2013.
 
 ******************************************
 Gaussian 09:  EM64L-G09RevD.01 24-Apr-2013
                10-Jan-2017 
 ******************************************
 %nproc=20
 Will use up to   20 processors via shared memory.
 %mem=100GB
 %chk=Ac-4_cGalMe.chk
 -------------------------------------------------------------------
 #P PBE1PBE/6-311+G(d,p) opt optcyc=999 freq EmpiricalDispersion=GD3
 -------------------------------------------------------------------
 1/6=999,14=-1,18=20,19=15,26=3,38=1/1,3;
 2/9=110,12=2,17=6,18=5,40=1/2;
 3/5=4,6=6,7=111,11=2,16=1,25=1,30=1,71=1,74=-13,124=31/1,2,3;
 4//1;
 5/5=2,38=5/2;
 6/7=2,8=2,9=2,10=2,28=1/1;
 7//1,2,3,16;
 1/6=999,14=-1,18=20,19=15,26=3/3(2);
 2/9=110/2;
 99//99;
 2/9=110/2;
 3/5=4,6=6,7=111,11=2,16=1,25=1,30=1,71=1,74=-13,124=31/1,2,3;
 4/5=5,16=3,69=1/1;
 5/5=2,38=5/2;
 7//1,2,3,16;
 1/6=999,14=-1,18=20,19=15,26=3/3(-5);
 2/9=110/2;
 6/7=2,8=2,9=2,10=2,19=2,28=1/1;
 99/9=1/99;
 Leave Link    1 at Tue Jan 10 07:28:01 2017, MaxMem= 13421772800 cpu:         1.5
 (Enter /share/apps//g09/l101.exe)
 -------
 disacch
 -------
 Symbolic Z-matrix:
 Charge =  1 Multiplicity = 1
 C                     1.76073   3.24208   0.25823 
 C                     0.76626   2.1843    0.77428 
 C                     1.29115   1.05142   1.68258 
 C                     2.6088    0.47515   1.13884 
 C                     2.44145   0.1854   -0.38572 
 C                     1.54271   1.20999  -1.09305 
 O                     0.37342   1.52214  -0.48148 
 O                     3.65504   1.40014   1.39664 
 O                     1.40936   1.29486   3.09528 
 O                     2.34107   2.61146  -0.99783 
 H                     2.6178    3.42599   0.90343 
 H                     1.24948   4.16127  -0.04405 
 H                    -0.14234   2.64603   1.16945 
 H                     0.52967   0.26021   1.60699 
 H                     2.80488  -0.48595   1.6467 
 H                     3.43541   0.20444  -0.86881 
 H                     1.39167   0.99457  -2.15804 
 O                     1.76046  -1.03478  -0.62106 
 C                     2.22233   3.44915  -2.20798 
 H                     2.74481   2.9118   -3.00489 
 H                     1.16435   3.61391  -2.4467 
 H                     2.73846   4.38804  -1.98681 
 C                     2.6331   -2.16445  -0.79796 
 H                     3.2529   -2.34237   0.09606 
 H                     1.97997  -3.02808  -0.95936 
 H                     3.28385  -2.02622  -1.67659 
 C                     4.9332    0.7834    1.60407 
 H                     4.89739   0.09243   2.46192 
 H                     5.28008   0.23725   0.71031 
 H                     5.63699   1.5948    1.81852 
 C                     1.53967   2.5653    3.59567 
 O                     1.44858   3.57061   2.91391 
 C                     1.79078   2.52328   5.0724 
 H                     2.82295   2.18952   5.25127 
 H                     1.12392   1.80402   5.56263 
 H                     1.65764   3.52379   5.49247 
 
 NAtoms=     36 NQM=       36 NQMF=       0 NMMI=      0 NMMIF=      0
                NMic=       0 NMicF=      0.
                    Isotopes and Nuclear Properties:
 (Nuclear quadrupole moments (NQMom) in fm**2, nuclear magnetic moments (NMagM)
  in nuclear magnetons)

  Atom         1           2           3           4           5           6           7           8           9          10
 IAtWgt=          12          12          12          12          12          12          16          16          16          16
 AtmWgt=  12.0000000  12.0000000  12.0000000  12.0000000  12.0000000  12.0000000  15.9949146  15.9949146  15.9949146  15.9949146
 NucSpn=           0           0           0           0           0           0           0           0           0           0
 AtZEff=   0.0000000   0.0000000   0.0000000   0.0000000   0.0000000   0.0000000   0.0000000   0.0000000   0.0000000   0.0000000
 NQMom=    0.0000000   0.0000000   0.0000000   0.0000000   0.0000000   0.0000000   0.0000000   0.0000000   0.0000000   0.0000000
 NMagM=    0.0000000   0.0000000   0.0000000   0.0000000   0.0000000   0.0000000   0.0000000   0.0000000   0.0000000   0.0000000
 AtZNuc=   6.0000000   6.0000000   6.0000000   6.0000000   6.0000000   6.0000000   8.0000000   8.0000000   8.0000000   8.0000000

  Atom        11          12          13          14          15          16          17          18          19          20
 IAtWgt=           1           1           1           1           1           1           1          16          12           1
 AtmWgt=   1.0078250   1.0078250   1.0078250   1.0078250   1.0078250   1.0078250   1.0078250  15.9949146  12.0000000   1.0078250
 NucSpn=           1           1           1           1           1           1           1           0           0           1
 AtZEff=   0.0000000   0.0000000   0.0000000   0.0000000   0.0000000   0.0000000   0.0000000   0.0000000   0.0000000   0.0000000
 NQMom=    0.0000000   0.0000000   0.0000000   0.0000000   0.0000000   0.0000000   0.0000000   0.0000000   0.0000000   0.0000000
 NMagM=    2.7928460   2.7928460   2.7928460   2.7928460   2.7928460   2.7928460   2.7928460   0.0000000   0.0000000   2.7928460
 AtZNuc=   1.0000000   1.0000000   1.0000000   1.0000000   1.0000000   1.0000000   1.0000000   8.0000000   6.0000000   1.0000000

  Atom        21          22          23          24          25          26          27          28          29          30
 IAtWgt=           1           1          12           1           1           1          12           1           1           1
 AtmWgt=   1.0078250   1.0078250  12.0000000   1.0078250   1.0078250   1.0078250  12.0000000   1.0078250   1.0078250   1.0078250
 NucSpn=           1           1           0           1           1           1           0           1           1           1
 AtZEff=   0.0000000   0.0000000   0.0000000   0.0000000   0.0000000   0.0000000   0.0000000   0.0000000   0.0000000   0.0000000
 NQMom=    0.0000000   0.0000000   0.0000000   0.0000000   0.0000000   0.0000000   0.0000000   0.0000000   0.0000000   0.0000000
 NMagM=    2.7928460   2.7928460   0.0000000   2.7928460   2.7928460   2.7928460   0.0000000   2.7928460   2.7928460   2.7928460
 AtZNuc=   1.0000000   1.0000000   6.0000000   1.0000000   1.0000000   1.0000000   6.0000000   1.0000000   1.0000000   1.0000000

  Atom        31          32          33          34          35          36
 IAtWgt=          12          16          12           1           1           1
 AtmWgt=  12.0000000  15.9949146  12.0000000   1.0078250   1.0078250   1.0078250
 NucSpn=           0           0           0           1           1           1
 AtZEff=   0.0000000   0.0000000   0.0000000   0.0000000   0.0000000   0.0000000
 NQMom=    0.0000000   0.0000000   0.0000000   0.0000000   0.0000000   0.0000000
 NMagM=    0.0000000   0.0000000   0.0000000   2.7928460   2.7928460   2.7928460
 AtZNuc=   6.0000000   8.0000000   6.0000000   1.0000000   1.0000000   1.0000000
 Leave Link  101 at Tue Jan 10 07:28:01 2017, MaxMem= 13421772800 cpu:         4.4
 (Enter /share/apps//g09/l103.exe)

 GradGradGradGradGradGradGradGradGradGradGradGradGradGradGradGradGradGrad
 Berny optimization.
 Initialization pass.
                           ----------------------------
                           !    Initial Parameters    !
                           ! (Angstroms and Degrees)  !
 --------------------------                            --------------------------
 ! Name  Definition              Value          Derivative Info.                !
 --------------------------------------------------------------------------------
 ! R1    R(1,2)                  1.5408         estimate D2E/DX2                !
 ! R2    R(1,10)                 1.5206         estimate D2E/DX2                !
 ! R3    R(1,11)                 1.0884         estimate D2E/DX2                !
 ! R4    R(1,12)                 1.0944         estimate D2E/DX2                !
 ! R5    R(2,3)                  1.544          estimate D2E/DX2                !
 ! R6    R(2,7)                  1.473          estimate D2E/DX2                !
 ! R7    R(2,13)                 1.0931         estimate D2E/DX2                !
 ! R8    R(3,4)                  1.5375         estimate D2E/DX2                !
 ! R9    R(3,9)                  1.4384         estimate D2E/DX2                !
 ! R10   R(3,14)                 1.1007         estimate D2E/DX2                !
 ! R11   R(4,5)                  1.5608         estimate D2E/DX2                !
 ! R12   R(4,8)                  1.4201         estimate D2E/DX2                !
 ! R13   R(4,15)                 1.1046         estimate D2E/DX2                !
 ! R14   R(5,6)                  1.5355         estimate D2E/DX2                !
 ! R15   R(5,16)                 1.1053         estimate D2E/DX2                !
 ! R16   R(5,18)                 1.417          estimate D2E/DX2                !
 ! R17   R(6,7)                  1.356          estimate D2E/DX2                !
 ! R18   R(6,10)                 1.6157         estimate D2E/DX2                !
 ! R19   R(6,17)                 1.097          estimate D2E/DX2                !
 ! R20   R(8,27)                 1.4343         estimate D2E/DX2                !
 ! R21   R(9,31)                 1.3716         estimate D2E/DX2                !
 ! R22   R(10,19)                1.4766         estimate D2E/DX2                !
 ! R23   R(18,23)                1.4384         estimate D2E/DX2                !
 ! R24   R(19,20)                1.094          estimate D2E/DX2                !
 ! R25   R(19,21)                1.097          estimate D2E/DX2                !
 ! R26   R(19,22)                1.094          estimate D2E/DX2                !
 ! R27   R(23,24)                1.1023         estimate D2E/DX2                !
 ! R28   R(23,25)                1.0948         estimate D2E/DX2                !
 ! R29   R(23,26)                1.1021         estimate D2E/DX2                !
 ! R30   R(27,28)                1.1021         estimate D2E/DX2                !
 ! R31   R(27,29)                1.1034         estimate D2E/DX2                !
 ! R32   R(27,30)                1.0953         estimate D2E/DX2                !
 ! R33   R(31,32)                1.2181         estimate D2E/DX2                !
 ! R34   R(31,33)                1.4985         estimate D2E/DX2                !
 ! R35   R(33,34)                1.0994         estimate D2E/DX2                !
 ! R36   R(33,35)                1.0965         estimate D2E/DX2                !
 ! R37   R(33,36)                1.0933         estimate D2E/DX2                !
 ! A1    A(2,1,10)             103.7846         estimate D2E/DX2                !
 ! A2    A(2,1,11)             115.194          estimate D2E/DX2                !
 ! A3    A(2,1,12)             111.5678         estimate D2E/DX2                !
 ! A4    A(10,1,11)            105.0229         estimate D2E/DX2                !
 ! A5    A(10,1,12)            107.3656         estimate D2E/DX2                !
 ! A6    A(11,1,12)            112.9342         estimate D2E/DX2                !
 ! A7    A(1,2,3)              118.7715         estimate D2E/DX2                !
 ! A8    A(1,2,7)              101.2569         estimate D2E/DX2                !
 ! A9    A(1,2,13)             111.5655         estimate D2E/DX2                !
 ! A10   A(3,2,7)              105.2094         estimate D2E/DX2                !
 ! A11   A(3,2,13)             112.3231         estimate D2E/DX2                !
 ! A12   A(7,2,13)             106.0453         estimate D2E/DX2                !
 ! A13   A(2,3,4)              110.9961         estimate D2E/DX2                !
 ! A14   A(2,3,9)              118.7853         estimate D2E/DX2                !
 ! A15   A(2,3,14)             104.5861         estimate D2E/DX2                !
 ! A16   A(4,3,9)              109.8974         estimate D2E/DX2                !
 ! A17   A(4,3,14)             107.408          estimate D2E/DX2                !
 ! A18   A(9,3,14)             104.2384         estimate D2E/DX2                !
 ! A19   A(3,4,5)              108.8517         estimate D2E/DX2                !
 ! A20   A(3,4,8)              108.8476         estimate D2E/DX2                !
 ! A21   A(3,4,15)             108.4003         estimate D2E/DX2                !
 ! A22   A(5,4,8)              112.1617         estimate D2E/DX2                !
 ! A23   A(5,4,15)             107.8544         estimate D2E/DX2                !
 ! A24   A(8,4,15)             110.6404         estimate D2E/DX2                !
 ! A25   A(4,5,6)              112.8812         estimate D2E/DX2                !
 ! A26   A(4,5,16)             109.1044         estimate D2E/DX2                !
 ! A27   A(4,5,18)             111.9374         estimate D2E/DX2                !
 ! A28   A(6,5,16)             108.271          estimate D2E/DX2                !
 ! A29   A(6,5,18)             102.52           estimate D2E/DX2                !
 ! A30   A(16,5,18)            111.9879         estimate D2E/DX2                !
 ! A31   A(5,6,7)              116.7796         estimate D2E/DX2                !
 ! A32   A(5,6,10)             105.2138         estimate D2E/DX2                !
 ! A33   A(5,6,17)             113.3756         estimate D2E/DX2                !
 ! A34   A(7,6,10)             101.5271         estimate D2E/DX2                !
 ! A35   A(7,6,17)             111.3664         estimate D2E/DX2                !
 ! A36   A(10,6,17)            107.1921         estimate D2E/DX2                !
 ! A37   A(2,7,6)              104.9519         estimate D2E/DX2                !
 ! A38   A(4,8,27)             113.7485         estimate D2E/DX2                !
 ! A39   A(3,9,31)             121.5245         estimate D2E/DX2                !
 ! A40   A(1,10,6)             102.6988         estimate D2E/DX2                !
 ! A41   A(1,10,19)            114.269          estimate D2E/DX2                !
 ! A42   A(6,10,19)            113.8319         estimate D2E/DX2                !
 ! A43   A(5,18,23)            113.9            estimate D2E/DX2                !
 ! A44   A(10,19,20)           106.2569         estimate D2E/DX2                !
 ! A45   A(10,19,21)           109.944          estimate D2E/DX2                !
 ! A46   A(10,19,22)           106.4547         estimate D2E/DX2                !
 ! A47   A(20,19,21)           112.077          estimate D2E/DX2                !
 ! A48   A(20,19,22)           110.0899         estimate D2E/DX2                !
 ! A49   A(21,19,22)           111.7214         estimate D2E/DX2                !
 ! A50   A(18,23,24)           111.601          estimate D2E/DX2                !
 ! A51   A(18,23,25)           106.0069         estimate D2E/DX2                !
 ! A52   A(18,23,26)           110.9635         estimate D2E/DX2                !
 ! A53   A(24,23,25)           109.129          estimate D2E/DX2                !
 ! A54   A(24,23,26)           109.5628         estimate D2E/DX2                !
 ! A55   A(25,23,26)           109.4927         estimate D2E/DX2                !
 ! A56   A(8,27,28)            110.6839         estimate D2E/DX2                !
 ! A57   A(8,27,29)            112.0778         estimate D2E/DX2                !
 ! A58   A(8,27,30)            106.4029         estimate D2E/DX2                !
 ! A59   A(28,27,29)           109.2924         estimate D2E/DX2                !
 ! A60   A(28,27,30)           109.4467         estimate D2E/DX2                !
 ! A61   A(29,27,30)           108.8611         estimate D2E/DX2                !
 ! A62   A(9,31,32)            123.5826         estimate D2E/DX2                !
 ! A63   A(9,31,33)            110.454          estimate D2E/DX2                !
 ! A64   A(32,31,33)           125.9609         estimate D2E/DX2                !
 ! A65   A(31,33,34)           109.0358         estimate D2E/DX2                !
 ! A66   A(31,33,35)           110.9197         estimate D2E/DX2                !
 ! A67   A(31,33,36)           109.4256         estimate D2E/DX2                !
 ! A68   A(34,33,35)           107.4027         estimate D2E/DX2                !
 ! A69   A(34,33,36)           109.2469         estimate D2E/DX2                !
 ! A70   A(35,33,36)           110.7599         estimate D2E/DX2                !
 ! D1    D(10,1,2,3)            85.7705         estimate D2E/DX2                !
 ! D2    D(10,1,2,7)           -28.7148         estimate D2E/DX2                !
 ! D3    D(10,1,2,13)         -141.1537         estimate D2E/DX2                !
 ! D4    D(11,1,2,3)           -28.4574         estimate D2E/DX2                !
 ! D5    D(11,1,2,7)          -142.9427         estimate D2E/DX2                !
 ! D6    D(11,1,2,13)          104.6185         estimate D2E/DX2                !
 ! D7    D(12,1,2,3)          -158.9247         estimate D2E/DX2                !
 ! D8    D(12,1,2,7)            86.59           estimate D2E/DX2                !
 ! D9    D(12,1,2,13)          -25.8489         estimate D2E/DX2                !
 ! D10   D(2,1,10,6)             1.7229         estimate D2E/DX2                !
 ! D11   D(2,1,10,19)          125.4979         estimate D2E/DX2                !
 ! D12   D(11,1,10,6)          123.0325         estimate D2E/DX2                !
 ! D13   D(11,1,10,19)        -113.1924         estimate D2E/DX2                !
 ! D14   D(12,1,10,6)         -116.526          estimate D2E/DX2                !
 ! D15   D(12,1,10,19)           7.2491         estimate D2E/DX2                !
 ! D16   D(1,2,3,4)            -44.1968         estimate D2E/DX2                !
 ! D17   D(1,2,3,9)             84.6176         estimate D2E/DX2                !
 ! D18   D(1,2,3,14)          -159.7273         estimate D2E/DX2                !
 ! D19   D(7,2,3,4)             68.1412         estimate D2E/DX2                !
 ! D20   D(7,2,3,9)           -163.0443         estimate D2E/DX2                !
 ! D21   D(7,2,3,14)           -47.3893         estimate D2E/DX2                !
 ! D22   D(13,2,3,4)          -176.9443         estimate D2E/DX2                !
 ! D23   D(13,2,3,9)           -48.1298         estimate D2E/DX2                !
 ! D24   D(13,2,3,14)           67.5252         estimate D2E/DX2                !
 ! D25   D(1,2,7,6)             50.7181         estimate D2E/DX2                !
 ! D26   D(3,2,7,6)            -73.5236         estimate D2E/DX2                !
 ! D27   D(13,2,7,6)           167.2828         estimate D2E/DX2                !
 ! D28   D(2,3,4,5)            -48.0501         estimate D2E/DX2                !
 ! D29   D(2,3,4,8)             74.4797         estimate D2E/DX2                !
 ! D30   D(2,3,4,15)          -165.1161         estimate D2E/DX2                !
 ! D31   D(9,3,4,5)            178.5229         estimate D2E/DX2                !
 ! D32   D(9,3,4,8)            -58.9473         estimate D2E/DX2                !
 ! D33   D(9,3,4,15)            61.4569         estimate D2E/DX2                !
 ! D34   D(14,3,4,5)            65.7171         estimate D2E/DX2                !
 ! D35   D(14,3,4,8)          -171.7531         estimate D2E/DX2                !
 ! D36   D(14,3,4,15)          -51.3489         estimate D2E/DX2                !
 ! D37   D(2,3,9,31)           -23.626          estimate D2E/DX2                !
 ! D38   D(4,3,9,31)           105.6931         estimate D2E/DX2                !
 ! D39   D(14,3,9,31)         -139.4663         estimate D2E/DX2                !
 ! D40   D(3,4,5,6)             34.9757         estimate D2E/DX2                !
 ! D41   D(3,4,5,16)           155.3934         estimate D2E/DX2                !
 ! D42   D(3,4,5,18)           -80.0887         estimate D2E/DX2                !
 ! D43   D(8,4,5,6)            -85.5327         estimate D2E/DX2                !
 ! D44   D(8,4,5,16)            34.885          estimate D2E/DX2                !
 ! D45   D(8,4,5,18)           159.4029         estimate D2E/DX2                !
 ! D46   D(15,4,5,6)           152.3889         estimate D2E/DX2                !
 ! D47   D(15,4,5,16)          -87.1935         estimate D2E/DX2                !
 ! D48   D(15,4,5,18)           37.3245         estimate D2E/DX2                !
 ! D49   D(3,4,8,27)           149.1464         estimate D2E/DX2                !
 ! D50   D(5,4,8,27)           -90.3428         estimate D2E/DX2                !
 ! D51   D(15,4,8,27)           30.1341         estimate D2E/DX2                !
 ! D52   D(4,5,6,7)            -46.5168         estimate D2E/DX2                !
 ! D53   D(4,5,6,10)            65.1508         estimate D2E/DX2                !
 ! D54   D(4,5,6,17)          -178.0255         estimate D2E/DX2                !
 ! D55   D(16,5,6,7)          -167.4101         estimate D2E/DX2                !
 ! D56   D(16,5,6,10)          -55.7425         estimate D2E/DX2                !
 ! D57   D(16,5,6,17)           61.0812         estimate D2E/DX2                !
 ! D58   D(18,5,6,7)            74.0867         estimate D2E/DX2                !
 ! D59   D(18,5,6,10)         -174.2457         estimate D2E/DX2                !
 ! D60   D(18,5,6,17)          -57.422          estimate D2E/DX2                !
 ! D61   D(4,5,18,23)          -93.3472         estimate D2E/DX2                !
 ! D62   D(6,5,18,23)          145.3997         estimate D2E/DX2                !
 ! D63   D(16,5,18,23)          29.5504         estimate D2E/DX2                !
 ! D64   D(5,6,7,2)             64.9573         estimate D2E/DX2                !
 ! D65   D(10,6,7,2)           -48.804          estimate D2E/DX2                !
 ! D66   D(17,6,7,2)          -162.6145         estimate D2E/DX2                !
 ! D67   D(5,6,10,1)           -93.7711         estimate D2E/DX2                !
 ! D68   D(5,6,10,19)          142.1637         estimate D2E/DX2                !
 ! D69   D(7,6,10,1)            28.3695         estimate D2E/DX2                !
 ! D70   D(7,6,10,19)          -95.6957         estimate D2E/DX2                !
 ! D71   D(17,6,10,1)          145.2623         estimate D2E/DX2                !
 ! D72   D(17,6,10,19)          21.1971         estimate D2E/DX2                !
 ! D73   D(4,8,27,28)          -59.6059         estimate D2E/DX2                !
 ! D74   D(4,8,27,29)           62.686          estimate D2E/DX2                !
 ! D75   D(4,8,27,30)         -178.4289         estimate D2E/DX2                !
 ! D76   D(3,9,31,32)            6.6364         estimate D2E/DX2                !
 ! D77   D(3,9,31,33)         -173.9123         estimate D2E/DX2                !
 ! D78   D(1,10,19,20)         175.6457         estimate D2E/DX2                !
 ! D79   D(1,10,19,21)         -62.8678         estimate D2E/DX2                !
 ! D80   D(1,10,19,22)          58.3097         estimate D2E/DX2                !
 ! D81   D(6,10,19,20)         -66.7884         estimate D2E/DX2                !
 ! D82   D(6,10,19,21)          54.698          estimate D2E/DX2                !
 ! D83   D(6,10,19,22)         175.8756         estimate D2E/DX2                !
 ! D84   D(5,18,23,24)          60.771          estimate D2E/DX2                !
 ! D85   D(5,18,23,25)         179.4728         estimate D2E/DX2                !
 ! D86   D(5,18,23,26)         -61.7331         estimate D2E/DX2                !
 ! D87   D(9,31,33,34)          73.8334         estimate D2E/DX2                !
 ! D88   D(9,31,33,35)         -44.2401         estimate D2E/DX2                !
 ! D89   D(9,31,33,36)        -166.7318         estimate D2E/DX2                !
 ! D90   D(32,31,33,34)       -106.7314         estimate D2E/DX2                !
 ! D91   D(32,31,33,35)        135.1951         estimate D2E/DX2                !
 ! D92   D(32,31,33,36)         12.7035         estimate D2E/DX2                !
 --------------------------------------------------------------------------------
 Trust Radius=3.00D-01 FncErr=1.00D-07 GrdErr=1.00D-06
 Number of steps in this run=    216 maximum allowed number of steps=    216.
 GradGradGradGradGradGradGradGradGradGradGradGradGradGradGradGradGradGrad

 Leave Link  103 at Tue Jan 10 07:28:02 2017, MaxMem= 13421772800 cpu:         0.3
 (Enter /share/apps//g09/l202.exe)
                          Input orientation:                          
 ---------------------------------------------------------------------
 Center     Atomic      Atomic             Coordinates (Angstroms)
 Number     Number       Type             X           Y           Z
 ---------------------------------------------------------------------
      1          6           0        1.760730    3.242080    0.258230
      2          6           0        0.766260    2.184300    0.774280
      3          6           0        1.291150    1.051420    1.682580
      4          6           0        2.608800    0.475150    1.138840
      5          6           0        2.441450    0.185400   -0.385720
      6          6           0        1.542710    1.209990   -1.093050
      7          8           0        0.373420    1.522140   -0.481480
      8          8           0        3.655040    1.400140    1.396640
      9          8           0        1.409360    1.294860    3.095280
     10          8           0        2.341070    2.611460   -0.997830
     11          1           0        2.617800    3.425990    0.903430
     12          1           0        1.249480    4.161270   -0.044050
     13          1           0       -0.142340    2.646030    1.169450
     14          1           0        0.529670    0.260210    1.606990
     15          1           0        2.804880   -0.485950    1.646700
     16          1           0        3.435410    0.204440   -0.868810
     17          1           0        1.391670    0.994570   -2.158040
     18          8           0        1.760460   -1.034780   -0.621060
     19          6           0        2.222330    3.449150   -2.207980
     20          1           0        2.744810    2.911800   -3.004890
     21          1           0        1.164350    3.613910   -2.446700
     22          1           0        2.738460    4.388040   -1.986810
     23          6           0        2.633100   -2.164450   -0.797960
     24          1           0        3.252900   -2.342370    0.096060
     25          1           0        1.979970   -3.028080   -0.959360
     26          1           0        3.283850   -2.026220   -1.676590
     27          6           0        4.933200    0.783400    1.604070
     28          1           0        4.897390    0.092430    2.461920
     29          1           0        5.280080    0.237250    0.710310
     30          1           0        5.636990    1.594800    1.818520
     31          6           0        1.539670    2.565300    3.595670
     32          8           0        1.448580    3.570610    2.913910
     33          6           0        1.790780    2.523280    5.072400
     34          1           0        2.822950    2.189520    5.251270
     35          1           0        1.123920    1.804020    5.562630
     36          1           0        1.657640    3.523790    5.492470
 ---------------------------------------------------------------------
                    Distance matrix (angstroms):
                    1          2          3          4          5
     1  C    0.000000
     2  C    1.540836   0.000000
     3  C    2.654858   1.544000   0.000000
     4  C    3.024996   2.539498   1.537512   0.000000
     5  C    3.197084   2.854376   2.520128   1.560847   0.000000
     6  C    2.450078   2.244789   2.791514   2.580285   1.535524
     7  O    2.330235   1.472994   2.397282   2.952719   2.464304
     8  O    2.877000   3.057334   2.406521   1.420101   2.474914
     9  O    3.458899   2.567435   1.438387   2.436850   3.796508
    10  O    1.520580   2.408914   3.274241   3.033292   2.504101
    11  H    1.088428   2.233086   2.829427   2.960229   3.492052
    12  H    1.094377   2.193530   3.557268   4.102982   4.164742
    13  H    2.192549   1.093118   2.204762   3.504630   3.892200
    14  H    3.496600   2.109859   1.100717   2.141996   2.762498
    15  H    4.112944   3.470925   2.157817   1.104573   2.171065
    16  H    3.647195   3.707284   3.438723   2.187973   1.105303
    17  H    3.320522   3.225693   3.842356   3.552551   2.213123
    18  O    4.366312   3.646626   3.143126   2.469173   1.417029
    19  C    2.517567   3.551600   4.663975   4.493911   3.744424
    20  H    3.424245   4.327360   5.248478   4.808977   3.792801
    21  H    2.794740   3.546403   4.861418   4.979392   4.199203
    22  H    2.703587   4.045944   5.166446   5.009711   4.507093
    23  C    5.577377   4.986848   4.277351   3.274030   2.393422
    24  H    5.782642   5.209040   4.228867   3.072568   2.698182
    25  H    6.391048   5.625612   4.908833   4.131645   3.296738
    26  H    5.815360   5.483931   4.972599   3.826120   2.695783
    27  C    4.233315   4.473752   3.652742   2.390459   3.244331
    28  H    4.961369   4.928517   3.812086   2.671078   3.761561
    29  H    4.649646   4.916266   4.185659   2.715874   3.043319
    30  H    4.491484   5.016170   4.381788   3.299320   4.129959
    31  C    3.412536   2.950181   2.452246   3.398202   4.725315
    32  O    2.694069   2.639211   2.808429   3.752180   4.830424
    33  C    4.867629   4.431522   3.729193   4.509644   5.973285
    34  H    5.212163   4.926808   4.046879   4.460606   5.994806
    35  H    5.532649   4.816724   3.955902   4.851874   6.303863
    36  H    5.242829   4.984988   4.556555   5.399352   6.805316
                    6          7          8          9         10
     6  C    0.000000
     7  O    1.355985   0.000000
     8  O    3.270574   3.783021   0.000000
     9  O    4.191312   3.730689   2.817719   0.000000
    10  O    1.615724   2.307571   2.987859   4.399440   0.000000
    11  H    3.170553   3.252670   2.328775   3.287286   2.086823
    12  H    3.145861   2.814930   3.935244   4.254088   2.122069
    13  H    3.165519   2.062694   4.002993   2.818201   3.296304
    14  H    3.036206   2.445115   3.333410   2.014786   3.949004
    15  H    3.460566   3.804415   2.083900   2.686474   4.099098
    16  H    2.154931   3.355911   2.571031   4.583438   2.647257
    17  H    1.097006   2.031260   4.233566   5.261925   2.204945
    18  O    2.304166   2.912250   3.686378   4.400191   3.711351
    19  C    2.592063   3.180037   4.386842   5.781561   1.476579
    20  H    2.827779   3.731252   4.742057   6.450581   2.069179
    21  H    2.784664   2.977106   5.086804   6.012617   2.118679
    22  H    3.511214   4.009092   4.606018   6.096057   2.071771
    23  C    3.558493   4.335581   4.308936   5.349924   4.789003
    24  H    4.118008   4.853802   3.982412   5.061956   5.154460
    25  H    4.262664   4.849111   5.288263   5.954285   5.651220
    26  H    3.720906   4.742336   4.617626   6.108521   4.780965
    27  C    4.353373   5.068220   1.434255   3.860408   4.102539
    28  H    5.014043   5.583366   2.094841   3.743439   4.984993
    29  H    4.262190   5.210242   2.112846   4.667879   4.146371
    30  H    5.038695   5.744602   2.035682   4.426391   4.452922
    31  C    4.880673   4.367090   3.266209   1.371637   4.663112
    32  O    4.651571   4.108634   3.446957   2.283303   4.125314
    33  C    6.308648   5.818657   4.271782   2.358707   6.095760
    34  H    6.545906   6.269770   4.021650   2.728909   6.281838
    35  H    6.695247   6.097046   4.891335   2.535456   6.721090
    36  H    6.981114   6.429922   5.027457   3.282726   6.589645
                   11         12         13         14         15
    11  H    0.000000
    12  H    1.819520   0.000000
    13  H    2.880534   2.388660   0.000000
    14  H    3.857129   4.296781   2.516978   0.000000
    15  H    3.986317   5.184068   4.327028   2.394768   0.000000
    16  H    3.766657   4.595109   4.787083   3.817856   2.683654
    17  H    4.097291   3.810139   4.019042   3.931638   4.320318
    18  O    4.791406   5.252902   4.513860   2.855880   2.556318
    19  C    3.136528   2.477124   4.200440   5.252469   5.539218
    20  H    3.944045   3.544540   5.082458   5.762570   5.760695
    21  H    3.656665   2.465680   3.964943   5.299295   6.021305
    22  H    3.048538   2.458211   4.614714   5.901960   6.079686
    23  C    5.843627   6.519012   5.891900   4.010882   2.970393
    24  H    5.859110   6.806663   6.128944   4.058610   2.459980
    25  H    6.747728   7.284103   6.421180   4.416149   3.732888
    26  H    6.068502   6.714825   6.455125   4.857486   3.694063
    27  C    3.582632   5.262708   5.423965   4.434503   2.478470
    28  H    4.328746   6.011871   5.795708   4.453766   2.318988
    29  H    4.158496   5.675626   5.951107   4.834352   2.743439
    30  H    3.647760   5.413518   5.909910   5.283048   3.518507
    31  C    3.025113   3.984833   2.953340   3.207552   3.835279
    32  O    2.330240   3.022920   2.535550   3.675756   4.461059
    33  C    4.345015   5.399452   4.357182   4.326771   4.671112
    34  H    4.524893   5.865494   5.065827   4.718278   4.489030
    35  H    5.154669   6.083359   4.648917   4.287607   4.837778
    36  H    4.689431   5.588026   4.764335   5.198098   5.673105
                   16         17         18         19         20
    16  H    0.000000
    17  H    2.542301   0.000000
    18  O    2.098214   2.572270   0.000000
    19  C    3.713904   2.591805   4.778835   0.000000
    20  H    3.517039   2.494777   4.714561   1.093982   0.000000
    21  H    4.389981   2.644984   5.029774   1.097021   1.817247
    22  H    4.386134   3.654969   5.677036   1.093993   1.793268
    23  C    2.502071   3.656552   1.438384   5.802533   5.536365
    24  H    2.729565   4.436250   2.109841   6.317624   6.122120
    25  H    3.546222   4.238472   2.033685   6.600932   6.328613
    26  H    2.377251   3.596847   2.101860   5.602578   5.141886
    27  C    2.948509   5.171122   4.280568   5.383936   5.528259
    28  H    3.639189   5.869238   4.540451   6.342829   6.516783
    29  H    2.428478   4.890879   3.972195   5.308724   5.232927
    30  H    3.741898   5.847739   5.281451   5.595643   5.776199
    31  C    5.394356   5.966094   5.548886   5.910124   6.718617
    32  O    5.439445   5.688928   5.814026   5.181428   6.094788
    33  C    6.586335   7.401048   6.713881   7.351694   8.142711
    34  H    6.463051   7.640310   6.783012   7.588664   8.288062
    35  H    7.018908   7.767602   6.833885   8.018437   8.789588
    36  H    7.392187   8.062134   7.626689   7.721488   8.588457
                   21         22         23         24         25
    21  H    0.000000
    22  H    1.813449   0.000000
    23  C    6.185872   6.660300   0.000000
    24  H    6.804773   7.064093   1.102306   0.000000
    25  H    6.855177   7.525277   1.094754   1.790101   0.000000
    26  H    6.074242   6.444875   1.102077   1.800888   1.793947
    27  C    6.214882   5.541185   4.444100   3.855897   5.460780
    28  H    7.101476   6.550148   4.565888   3.772253   5.473032
    29  H    6.189328   5.564472   3.879374   3.337844   4.933650
    30  H    6.501801   5.539332   5.477343   4.914475   6.516244
    31  C    6.144158   5.993627   6.547527   6.266391   7.226899
    32  O    5.368315   5.133131   6.933396   6.794055   7.669896
    33  C    7.623566   7.362600   7.559460   7.111702   8.199727
    34  H    8.002411   7.565080   7.455621   6.877432   8.155114
    35  H    8.211376   8.141127   7.647449   7.183905   8.162007
    36  H    7.954991   7.606230   8.536809   8.128833   9.200924
                   26         27         28         29         30
    26  H    0.000000
    27  C    4.623532   0.000000
    28  H    4.921326   1.102102   0.000000
    29  H    3.847794   1.103364   1.798767   0.000000
    30  H    5.555614   1.095299   1.793903   1.788423   0.000000
    31  C    7.205619   4.319454   4.321430   5.266478   4.570357
    32  O    7.467624   4.650462   4.918976   5.536022   4.758832
    33  C    8.275027   4.993125   4.730186   6.035642   5.122806
    34  H    8.122816   4.442116   4.059749   5.519888   4.478424
    35  H    8.470085   5.587708   5.175231   6.578255   5.867703
    36  H    9.211004   5.775698   5.608426   6.840502   5.749273
                   31         32         33         34         35
    31  C    0.000000
    32  O    1.218090   0.000000
    33  C    1.498517   2.423444   0.000000
    34  H    2.128152   3.042952   1.099439   0.000000
    35  H    2.149727   3.200307   1.096523   1.769819   0.000000
    36  H    2.128490   2.587445   1.093254   1.787848   1.802051
                   36
    36  H    0.000000
 Stoichiometry    C11H19O6(1+)
 Framework group  C1[X(C11H19O6)]
 Deg. of freedom   102
 Full point group                 C1      NOp   1
 Largest Abelian subgroup         C1      NOp   1
 Largest concise Abelian subgroup C1      NOp   1
                         Standard orientation:                         
 ---------------------------------------------------------------------
 Center     Atomic      Atomic             Coordinates (Angstroms)
 Number     Number       Type             X           Y           Z
 ---------------------------------------------------------------------
      1          6           0       -0.223315    1.880504    0.330449
      2          6           0       -0.338889    1.096182   -0.990784
      3          6           0       -0.654296   -0.414165   -0.933282
      4          6           0        0.185001   -1.111369    0.149966
      5          6           0        1.674338   -0.670596   -0.004438
      6          6           0        1.820984    0.787570   -0.462784
      7          8           0        1.040958    1.183732   -1.498790
      8          8           0       -0.343053   -0.777364    1.425225
      9          8           0       -2.027098   -0.831731   -0.833221
     10          8           0        1.224138    1.674821    0.748466
     11          1           0       -0.813931    1.487343    1.155842
     12          1           0       -0.369060    2.953953    0.175128
     13          1           0       -0.962462    1.623180   -1.717652
     14          1           0       -0.323166   -0.803801   -1.908021
     15          1           0        0.135347   -2.201880   -0.018563
     16          1           0        2.187077   -0.781257    0.968469
     17          1           0        2.863903    1.095660   -0.607089
     18          8           0        2.333524   -1.384558   -1.035798
     19          6           0        1.968462    2.926115    0.994496
     20          1           0        2.955970    2.628394    1.359168
     21          1           0        2.030123    3.512852    0.069621
     22          1           0        1.424202    3.461469    1.778076
     23          6           0        3.030639   -2.556983   -0.579292
     24          1           0        2.343349   -3.282235   -0.113759
     25          1           0        3.478388   -3.008166   -1.470605
     26          1           0        3.825120   -2.289731    0.136215
     27          6           0       -0.172287   -1.807124    2.408852
     28          1           0       -0.669876   -2.737116    2.089243
     29          1           0        0.892270   -2.014426    2.611720
     30          1           0       -0.642538   -1.438907    3.326980
     31          6           0       -2.993004   -0.003781   -0.320470
     32          8           0       -2.794998    1.161757   -0.027114
     33          6           0       -4.295585   -0.733838   -0.194563
     34          1           0       -4.235552   -1.430706    0.653691
     35          1           0       -4.499886   -1.327954   -1.093257
     36          1           0       -5.099321   -0.015020   -0.014243
 ---------------------------------------------------------------------
 Rotational constants (GHZ):      0.6250056      0.3959594      0.3228016
 Leave Link  202 at Tue Jan 10 07:28:02 2017, MaxMem= 13421772800 cpu:         0.8
 (Enter /share/apps//g09/l301.exe)
 Standard basis: 6-311+G(d,p) (5D, 7F)
 Ernie: Thresh=  0.10000D-02 Tol=  0.10000D-05 Strict=F.
 There are   505 symmetry adapted cartesian basis functions of A   symmetry.
 There are   488 symmetry adapted basis functions of A   symmetry.
   488 basis functions,   764 primitive gaussians,   505 cartesian basis functions
    66 alpha electrons       66 beta electrons
       nuclear repulsion energy      1447.9911578760 Hartrees.
 IExCor= 1009 DFT=T Ex+Corr=PBE1PBE ExCW=0 ScaHFX=  0.250000
 ScaDFX=  0.750000  0.750000  1.000000  1.000000 ScalE2=  1.000000  1.000000
 IRadAn=      0 IRanWt=     -1 IRanGd=            0 ICorTp=0 IEmpDi=131
 NAtoms=   36 NActive=   36 NUniq=   36 SFac= 1.00D+00 NAtFMM=   60 NAOKFM=F Big=F
 Integral buffers will be    131072 words long.
 Raffenetti 2 integral format.
 Two-electron integral symmetry is turned on.
 R6Disp:  Grimme-D3 Dispersion energy=       -0.0260037593 Hartrees.
 Nuclear repulsion after empirical dispersion term =     1447.9651541167 Hartrees.
 Leave Link  301 at Tue Jan 10 07:28:02 2017, MaxMem= 13421772800 cpu:         1.7
 (Enter /share/apps//g09/l302.exe)
 NPDir=0 NMtPBC=     1 NCelOv=     1 NCel=       1 NClECP=     1 NCelD=      1
         NCelK=      1 NCelE2=     1 NClLst=     1 CellRange=     0.0.
 One-electron integrals computed using PRISM.
 NBasis=   488 RedAO= T EigKep=  2.32D-06  NBF=   488
 NBsUse=   488 1.00D-06 EigRej= -1.00D+00 NBFU=   488
 Precomputing XC quadrature grid using
 IXCGrd= 4 IRadAn=           0 IRanWt=          -1 IRanGd=           0 AccXCQ= 0.00D+00.
 Generated NRdTot=       0 NPtTot=           0 NUsed=           0 NTot=          32
 NSgBfM=   504   504   504   504   504 MxSgAt=    36 MxSgA2=    36.
 Leave Link  302 at Tue Jan 10 07:28:03 2017, MaxMem= 13421772800 cpu:        12.1
 (Enter /share/apps//g09/l303.exe)
 DipDrv:  MaxL=1.
 Leave Link  303 at Tue Jan 10 07:28:03 2017, MaxMem= 13421772800 cpu:         6.5
 (Enter /share/apps//g09/l401.exe)
 ExpMin= 4.38D-02 ExpMax= 8.59D+03 ExpMxC= 1.30D+03 IAcc=2 IRadAn=         4 AccDes= 0.00D+00
 Harris functional with IExCor= 1009 and IRadAn=       4 diagonalized for initial guess.
 HarFok:  IExCor= 1009 AccDes= 0.00D+00 IRadAn=         4 IDoV= 1 UseB2=F ITyADJ=14
 ICtDFT=  3500011 ScaDFX=  1.000000  1.000000  1.000000  1.000000
 FoFCou: FMM=F IPFlag=           0 FMFlag=      100000 FMFlg1=           0
         NFxFlg=           0 DoJE=T BraDBF=F KetDBF=T FulRan=T
         wScrn=  0.000000 ICntrl=     500 IOpCl=  0 I1Cent=   200000004 NGrid=           0
         NMat0=    1 NMatS0=      1 NMatT0=    0 NMatD0=    1 NMtDS0=    0 NMtDT0=    0
 Petite list used in FoFCou.
 Harris En= -881.095191395046    
 JPrj=0 DoOrth=F DoCkMO=F.
 Leave Link  401 at Tue Jan 10 07:28:06 2017, MaxMem= 13421772800 cpu:        42.2
 (Enter /share/apps//g09/l502.exe)
 Closed shell SCF:
 Using DIIS extrapolation, IDIIS=  1040.
 Integral symmetry usage will be decided dynamically.
 Keep R1 ints in memory in canonical form, NReq=7183787934.
 IVT=      797493 IEndB=      797493 NGot= 13421772800 MDV=  6302761722
 LenX=  6302761722 LenY=  6302506192
 Requested convergence on RMS density matrix=1.00D-08 within 128 cycles.
 Requested convergence on MAX density matrix=1.00D-06.
 Requested convergence on             energy=1.00D-06.
 No special actions if energy rises.
 FoFCou: FMM=F IPFlag=           0 FMFlag=           0 FMFlg1=           0
         NFxFlg=           0 DoJE=F BraDBF=F KetDBF=F FulRan=T
         wScrn=  0.000000 ICntrl=     600 IOpCl=  0 I1Cent=           0 NGrid=           0
         NMat0=    1 NMatS0= 119316 NMatT0=    0 NMatD0=    1 NMtDS0=    0 NMtDT0=    0
 Symmetry not used in FoFCou.

 Cycle   1  Pass 1  IDiag  1:
 E= -880.618617416963    
 DIIS: error= 1.63D-02 at cycle   1 NSaved=   1.
 NSaved= 1 IEnMin= 1 EnMin= -880.618617416963     IErMin= 1 ErrMin= 1.63D-02
 ErrMax= 1.63D-02  0.00D+00 EMaxC= 1.00D-01 BMatC= 4.06D-01 BMatP= 4.06D-01
 IDIUse=3 WtCom= 8.37D-01 WtEn= 1.63D-01
 Coeff-Com:  0.100D+01
 Coeff-En:   0.100D+01
 Coeff:      0.100D+01
 Gap=     0.261 Goal=   None    Shift=    0.000
 GapD=    0.261 DampG=1.000 DampE=0.500 DampFc=0.5000 IDamp=-1.
 Damping current iteration by 5.00D-01
 RMSDP=1.42D-02 MaxDP=2.82D+00              OVMax= 2.29D-01

 Cycle   2  Pass 1  IDiag  1:
 E= -880.726296560743     Delta-E=       -0.107679143780 Rises=F Damp=T
 DIIS: error= 6.23D-03 at cycle   2 NSaved=   2.
 NSaved= 2 IEnMin= 2 EnMin= -880.726296560743     IErMin= 2 ErrMin= 6.23D-03
 ErrMax= 6.23D-03  0.00D+00 EMaxC= 1.00D-01 BMatC= 5.28D-02 BMatP= 4.06D-01
 IDIUse=3 WtCom= 9.38D-01 WtEn= 6.23D-02
 Coeff-Com:  0.114D+00 0.886D+00
 Coeff-En:   0.227D+00 0.773D+00
 Coeff:      0.121D+00 0.879D+00
 Gap=     0.320 Goal=   None    Shift=    0.000
 RMSDP=6.58D-03 MaxDP=1.41D+00 DE=-1.08D-01 OVMax= 1.18D-01

 Cycle   3  Pass 1  IDiag  1:
 E= -880.870672821407     Delta-E=       -0.144376260664 Rises=F Damp=F
 DIIS: error= 9.03D-03 at cycle   3 NSaved=   3.
 NSaved= 3 IEnMin= 3 EnMin= -880.870672821407     IErMin= 2 ErrMin= 6.23D-03
 ErrMax= 9.03D-03  0.00D+00 EMaxC= 1.00D-01 BMatC= 5.80D-02 BMatP= 5.28D-02
 IDIUse=3 WtCom= 9.10D-01 WtEn= 9.03D-02
 Coeff-Com: -0.399D-01 0.525D+00 0.515D+00
 Coeff-En:   0.000D+00 0.000D+00 0.100D+01
 Coeff:     -0.363D-01 0.478D+00 0.559D+00
 Gap=     0.264 Goal=   None    Shift=    0.000
 RMSDP=2.09D-03 MaxDP=2.86D-01 DE=-1.44D-01 OVMax= 6.08D-02

 Cycle   4  Pass 1  IDiag  1:
 E= -880.905217925067     Delta-E=       -0.034545103660 Rises=F Damp=F
 DIIS: error= 4.77D-03 at cycle   4 NSaved=   4.
 NSaved= 4 IEnMin= 4 EnMin= -880.905217925067     IErMin= 4 ErrMin= 4.77D-03
 ErrMax= 4.77D-03  0.00D+00 EMaxC= 1.00D-01 BMatC= 1.12D-02 BMatP= 5.28D-02
 IDIUse=3 WtCom= 9.52D-01 WtEn= 4.77D-02
 Coeff-Com: -0.322D-01 0.149D+00 0.341D+00 0.542D+00
 Coeff-En:   0.000D+00 0.000D+00 0.188D+00 0.812D+00
 Coeff:     -0.307D-01 0.142D+00 0.334D+00 0.555D+00
 Gap=     0.257 Goal=   None    Shift=    0.000
 RMSDP=9.56D-04 MaxDP=1.78D-01 DE=-3.45D-02 OVMax= 2.74D-02

 Cycle   5  Pass 1  IDiag  1:
 E= -880.913118948423     Delta-E=       -0.007901023356 Rises=F Damp=F
 DIIS: error= 1.28D-03 at cycle   5 NSaved=   5.
 NSaved= 5 IEnMin= 5 EnMin= -880.913118948423     IErMin= 5 ErrMin= 1.28D-03
 ErrMax= 1.28D-03  0.00D+00 EMaxC= 1.00D-01 BMatC= 8.05D-04 BMatP= 1.12D-02
 IDIUse=3 WtCom= 9.87D-01 WtEn= 1.28D-02
 Coeff-Com: -0.144D-01 0.451D-01 0.150D+00 0.322D+00 0.498D+00
 Coeff-En:   0.000D+00 0.000D+00 0.000D+00 0.000D+00 0.100D+01
 Coeff:     -0.142D-01 0.445D-01 0.148D+00 0.318D+00 0.505D+00
 Gap=     0.259 Goal=   None    Shift=    0.000
 RMSDP=1.87D-04 MaxDP=1.37D-02 DE=-7.90D-03 OVMax= 6.42D-03

 Cycle   6  Pass 1  IDiag  1:
 E= -880.913661765670     Delta-E=       -0.000542817247 Rises=F Damp=F
 DIIS: error= 2.86D-04 at cycle   6 NSaved=   6.
 NSaved= 6 IEnMin= 6 EnMin= -880.913661765670     IErMin= 6 ErrMin= 2.86D-04
 ErrMax= 2.86D-04  0.00D+00 EMaxC= 1.00D-01 BMatC= 6.35D-05 BMatP= 8.05D-04
 IDIUse=3 WtCom= 9.97D-01 WtEn= 2.86D-03
 Coeff-Com: -0.387D-02 0.655D-02 0.371D-01 0.102D+00 0.276D+00 0.582D+00
 Coeff-En:   0.000D+00 0.000D+00 0.000D+00 0.000D+00 0.181D-01 0.982D+00
 Coeff:     -0.385D-02 0.653D-02 0.370D-01 0.102D+00 0.275D+00 0.583D+00
 Gap=     0.259 Goal=   None    Shift=    0.000
 RMSDP=7.45D-05 MaxDP=8.68D-03 DE=-5.43D-04 OVMax= 1.01D-03

 Cycle   7  Pass 1  IDiag  1:
 E= -880.913705242817     Delta-E=       -0.000043477147 Rises=F Damp=F
 DIIS: error= 7.82D-05 at cycle   7 NSaved=   7.
 NSaved= 7 IEnMin= 7 EnMin= -880.913705242817     IErMin= 7 ErrMin= 7.82D-05
 ErrMax= 7.82D-05  0.00D+00 EMaxC= 1.00D-01 BMatC= 5.01D-06 BMatP= 6.35D-05
 IDIUse=1 WtCom= 1.00D+00 WtEn= 0.00D+00
 Coeff-Com: -0.148D-02 0.116D-02 0.135D-01 0.415D-01 0.135D+00 0.331D+00
 Coeff-Com:  0.479D+00
 Coeff:     -0.148D-02 0.116D-02 0.135D-01 0.415D-01 0.135D+00 0.331D+00
 Coeff:      0.479D+00
 Gap=     0.258 Goal=   None    Shift=    0.000
 RMSDP=1.69D-05 MaxDP=1.38D-03 DE=-4.35D-05 OVMax= 3.00D-04

 Cycle   8  Pass 1  IDiag  1:
 E= -880.913708826789     Delta-E=       -0.000003583972 Rises=F Damp=F
 DIIS: error= 2.28D-05 at cycle   8 NSaved=   8.
 NSaved= 8 IEnMin= 8 EnMin= -880.913708826789     IErMin= 8 ErrMin= 2.28D-05
 ErrMax= 2.28D-05  0.00D+00 EMaxC= 1.00D-01 BMatC= 3.54D-07 BMatP= 5.01D-06
 IDIUse=1 WtCom= 1.00D+00 WtEn= 0.00D+00
 Coeff-Com: -0.485D-06-0.387D-03 0.113D-03 0.171D-02 0.178D-01 0.542D-01
 Coeff-Com:  0.224D+00 0.702D+00
 Coeff:     -0.485D-06-0.387D-03 0.113D-03 0.171D-02 0.178D-01 0.542D-01
 Coeff:      0.224D+00 0.702D+00
 Gap=     0.258 Goal=   None    Shift=    0.000
 RMSDP=7.95D-06 MaxDP=1.65D-03 DE=-3.58D-06 OVMax= 1.14D-04

 Cycle   9  Pass 1  IDiag  1:
 E= -880.913709059275     Delta-E=       -0.000000232486 Rises=F Damp=F
 DIIS: error= 4.89D-06 at cycle   9 NSaved=   9.
 NSaved= 9 IEnMin= 9 EnMin= -880.913709059275     IErMin= 9 ErrMin= 4.89D-06
 ErrMax= 4.89D-06  0.00D+00 EMaxC= 1.00D-01 BMatC= 4.08D-08 BMatP= 3.54D-07
 IDIUse=1 WtCom= 1.00D+00 WtEn= 0.00D+00
 Coeff-Com:  0.813D-04-0.262D-03-0.769D-03-0.178D-02 0.461D-03 0.420D-02
 Coeff-Com:  0.795D-01 0.359D+00 0.559D+00
 Coeff:      0.813D-04-0.262D-03-0.769D-03-0.178D-02 0.461D-03 0.420D-02
 Coeff:      0.795D-01 0.359D+00 0.559D+00
 Gap=     0.258 Goal=   None    Shift=    0.000
 RMSDP=2.90D-06 MaxDP=4.35D-04 DE=-2.32D-07 OVMax= 2.52D-05

 Cycle  10  Pass 1  IDiag  1:
 E= -880.913709093065     Delta-E=       -0.000000033790 Rises=F Damp=F
 DIIS: error= 1.13D-06 at cycle  10 NSaved=  10.
 NSaved=10 IEnMin=10 EnMin= -880.913709093065     IErMin=10 ErrMin= 1.13D-06
 ErrMax= 1.13D-06  0.00D+00 EMaxC= 1.00D-01 BMatC= 1.43D-09 BMatP= 4.08D-08
 IDIUse=1 WtCom= 1.00D+00 WtEn= 0.00D+00
 Coeff-Com:  0.296D-04-0.704D-04-0.333D-03-0.876D-03-0.124D-02-0.311D-02
 Coeff-Com:  0.130D-01 0.847D-01 0.203D+00 0.705D+00
 Coeff:      0.296D-04-0.704D-04-0.333D-03-0.876D-03-0.124D-02-0.311D-02
 Coeff:      0.130D-01 0.847D-01 0.203D+00 0.705D+00
 Gap=     0.258 Goal=   None    Shift=    0.000
 RMSDP=7.95D-07 MaxDP=9.46D-05 DE=-3.38D-08 OVMax= 7.05D-06

 Cycle  11  Pass 1  IDiag  1:
 E= -880.913709094252     Delta-E=       -0.000000001187 Rises=F Damp=F
 DIIS: error= 3.41D-07 at cycle  11 NSaved=  11.
 NSaved=11 IEnMin=11 EnMin= -880.913709094252     IErMin=11 ErrMin= 3.41D-07
 ErrMax= 3.41D-07  0.00D+00 EMaxC= 1.00D-01 BMatC= 1.80D-10 BMatP= 1.43D-09
 IDIUse=1 WtCom= 1.00D+00 WtEn= 0.00D+00
 Coeff-Com:  0.574D-05-0.677D-05-0.831D-04-0.238D-03-0.571D-03-0.170D-02
 Coeff-Com: -0.128D-02 0.559D-02 0.366D-01 0.299D+00 0.663D+00
 Coeff:      0.574D-05-0.677D-05-0.831D-04-0.238D-03-0.571D-03-0.170D-02
 Coeff:     -0.128D-02 0.559D-02 0.366D-01 0.299D+00 0.663D+00
 Gap=     0.258 Goal=   None    Shift=    0.000
 RMSDP=1.76D-07 MaxDP=3.04D-05 DE=-1.19D-09 OVMax= 2.50D-06

 Cycle  12  Pass 1  IDiag  1:
 E= -880.913709094406     Delta-E=       -0.000000000154 Rises=F Damp=F
 DIIS: error= 1.71D-07 at cycle  12 NSaved=  12.
 NSaved=12 IEnMin=12 EnMin= -880.913709094406     IErMin=12 ErrMin= 1.71D-07
 ErrMax= 1.71D-07  0.00D+00 EMaxC= 1.00D-01 BMatC= 2.89D-11 BMatP= 1.80D-10
 IDIUse=1 WtCom= 1.00D+00 WtEn= 0.00D+00
 Coeff-Com: -0.105D-05 0.409D-05-0.114D-05-0.118D-04-0.121D-03-0.449D-03
 Coeff-Com: -0.215D-02-0.739D-02-0.575D-02 0.669D-01 0.335D+00 0.614D+00
 Coeff:     -0.105D-05 0.409D-05-0.114D-05-0.118D-04-0.121D-03-0.449D-03
 Coeff:     -0.215D-02-0.739D-02-0.575D-02 0.669D-01 0.335D+00 0.614D+00
 Gap=     0.258 Goal=   None    Shift=    0.000
 RMSDP=6.86D-08 MaxDP=1.32D-05 DE=-1.54D-10 OVMax= 9.09D-07

 Cycle  13  Pass 1  IDiag  1:
 E= -880.913709094432     Delta-E=       -0.000000000025 Rises=F Damp=F
 DIIS: error= 7.06D-08 at cycle  13 NSaved=  13.
 NSaved=13 IEnMin=13 EnMin= -880.913709094432     IErMin=13 ErrMin= 7.06D-08
 ErrMax= 7.06D-08  0.00D+00 EMaxC= 1.00D-01 BMatC= 2.39D-12 BMatP= 2.89D-11
 IDIUse=1 WtCom= 1.00D+00 WtEn= 0.00D+00
 Coeff-Com: -0.726D-06 0.224D-05 0.479D-05 0.913D-05-0.115D-04-0.810D-04
 Coeff-Com: -0.795D-03-0.362D-02-0.473D-02 0.962D-02 0.109D+00 0.297D+00
 Coeff-Com:  0.594D+00
 Coeff:     -0.726D-06 0.224D-05 0.479D-05 0.913D-05-0.115D-04-0.810D-04
 Coeff:     -0.795D-03-0.362D-02-0.473D-02 0.962D-02 0.109D+00 0.297D+00
 Coeff:      0.594D+00
 Gap=     0.258 Goal=   None    Shift=    0.000
 RMSDP=1.77D-08 MaxDP=3.33D-06 DE=-2.55D-11 OVMax= 2.17D-07

 Cycle  14  Pass 1  IDiag  1:
 E= -880.913709094424     Delta-E=        0.000000000008 Rises=F Damp=F
 DIIS: error= 1.69D-08 at cycle  14 NSaved=  14.
 NSaved=14 IEnMin=13 EnMin= -880.913709094432     IErMin=14 ErrMin= 1.69D-08
 ErrMax= 1.69D-08  0.00D+00 EMaxC= 1.00D-01 BMatC= 2.68D-13 BMatP= 2.39D-12
 IDIUse=1 WtCom= 1.00D+00 WtEn= 0.00D+00
 Coeff-Com: -0.203D-06 0.495D-06 0.274D-05 0.603D-05 0.100D-04 0.135D-04
 Coeff-Com: -0.105D-03-0.937D-03-0.172D-02-0.560D-02 0.503D-02 0.580D-01
 Coeff-Com:  0.276D+00 0.669D+00
 Coeff:     -0.203D-06 0.495D-06 0.274D-05 0.603D-05 0.100D-04 0.135D-04
 Coeff:     -0.105D-03-0.937D-03-0.172D-02-0.560D-02 0.503D-02 0.580D-01
 Coeff:      0.276D+00 0.669D+00
 Gap=     0.258 Goal=   None    Shift=    0.000
 RMSDP=9.68D-09 MaxDP=1.41D-06 DE= 7.73D-12 OVMax= 1.02D-07

 Cycle  15  Pass 1  IDiag  1:
 E= -880.913709094414     Delta-E=        0.000000000010 Rises=F Damp=F
 DIIS: error= 3.06D-09 at cycle  15 NSaved=  15.
 NSaved=15 IEnMin=13 EnMin= -880.913709094432     IErMin=15 ErrMin= 3.06D-09
 ErrMax= 3.06D-09  0.00D+00 EMaxC= 1.00D-01 BMatC= 1.49D-14 BMatP= 2.68D-13
 IDIUse=1 WtCom= 1.00D+00 WtEn= 0.00D+00
 Coeff-Com: -0.173D-07 0.415D-07 0.834D-06 0.167D-05 0.495D-05 0.940D-05
 Coeff-Com:  0.144D-04-0.150D-03-0.373D-03-0.266D-02-0.374D-02 0.708D-02
 Coeff-Com:  0.751D-01 0.272D+00 0.653D+00
 Coeff:     -0.173D-07 0.415D-07 0.834D-06 0.167D-05 0.495D-05 0.940D-05
 Coeff:      0.144D-04-0.150D-03-0.373D-03-0.266D-02-0.374D-02 0.708D-02
 Coeff:      0.751D-01 0.272D+00 0.653D+00
 Gap=     0.258 Goal=   None    Shift=    0.000
 RMSDP=6.26D-09 MaxDP=1.11D-06 DE= 9.55D-12 OVMax= 1.68D-08

 Cycle  16  Pass 1  IDiag  1:
 E= -880.913709094446     Delta-E=       -0.000000000032 Rises=F Damp=F
 DIIS: error= 1.23D-09 at cycle  16 NSaved=  16.
 NSaved=16 IEnMin=16 EnMin= -880.913709094446     IErMin=16 ErrMin= 1.23D-09
 ErrMax= 1.23D-09  0.00D+00 EMaxC= 1.00D-01 BMatC= 1.72D-15 BMatP= 1.49D-14
 IDIUse=1 WtCom= 1.00D+00 WtEn= 0.00D+00
 Coeff-Com:  0.731D-08-0.241D-07 0.234D-06 0.408D-06 0.177D-05 0.347D-05
 Coeff-Com:  0.156D-04 0.878D-06-0.410D-04-0.777D-03-0.213D-02-0.179D-02
 Coeff-Com:  0.101D-01 0.673D-01 0.310D+00 0.618D+00
 Coeff:      0.731D-08-0.241D-07 0.234D-06 0.408D-06 0.177D-05 0.347D-05
 Coeff:      0.156D-04 0.878D-06-0.410D-04-0.777D-03-0.213D-02-0.179D-02
 Coeff:      0.101D-01 0.673D-01 0.310D+00 0.618D+00
 Gap=     0.258 Goal=   None    Shift=    0.000
 RMSDP=3.60D-09 MaxDP=6.55D-07 DE=-3.18D-11 OVMax= 5.12D-09

 SCF Done:  E(RPBE1PBE) =  -880.913709094     A.U. after   16 cycles
            NFock= 16  Conv=0.36D-08     -V/T= 2.0044
 KE= 8.770901722011D+02 PE=-4.939370750241D+03 EE= 1.733401714829D+03
 Leave Link  502 at Tue Jan 10 07:32:08 2017, MaxMem= 13421772800 cpu:      1028.3
 (Enter /share/apps//g09/l601.exe)
 Copying SCF densities to generalized density rwf, IOpCl= 0 IROHF=0.

 **********************************************************************

            Population analysis using the SCF density.

 **********************************************************************

 Orbital symmetries:
       Occupied  (A) (A) (A) (A) (A) (A) (A) (A) (A) (A) (A) (A)
                 (A) (A) (A) (A) (A) (A) (A) (A) (A) (A) (A) (A)
                 (A) (A) (A) (A) (A) (A) (A) (A) (A) (A) (A) (A)
                 (A) (A) (A) (A) (A) (A) (A) (A) (A) (A) (A) (A)
                 (A) (A) (A) (A) (A) (A) (A) (A) (A) (A) (A) (A)
                 (A) (A) (A) (A) (A) (A)
       Virtual   (A) (A) (A) (A) (A) (A) (A) (A) (A) (A) (A) (A)
                 (A) (A) (A) (A) (A) (A) (A) (A) (A) (A) (A) (A)
                 (A) (A) (A) (A) (A) (A) (A) (A) (A) (A) (A) (A)
                 (A) (A) (A) (A) (A) (A) (A) (A) (A) (A) (A) (A)
                 (A) (A) (A) (A) (A) (A) (A) (A) (A) (A) (A) (A)
                 (A) (A) (A) (A) (A) (A) (A) (A) (A) (A) (A) (A)
                 (A) (A) (A) (A) (A) (A) (A) (A) (A) (A) (A) (A)
                 (A) (A) (A) (A) (A) (A) (A) (A) (A) (A) (A) (A)
                 (A) (A) (A) (A) (A) (A) (A) (A) (A) (A) (A) (A)
                 (A) (A) (A) (A) (A) (A) (A) (A) (A) (A) (A) (A)
                 (A) (A) (A) (A) (A) (A) (A) (A) (A) (A) (A) (A)
                 (A) (A) (A) (A) (A) (A) (A) (A) (A) (A) (A) (A)
                 (A) (A) (A) (A) (A) (A) (A) (A) (A) (A) (A) (A)
                 (A) (A) (A) (A) (A) (A) (A) (A) (A) (A) (A) (A)
                 (A) (A) (A) (A) (A) (A) (A) (A) (A) (A) (A) (A)
                 (A) (A) (A) (A) (A) (A) (A) (A) (A) (A) (A) (A)
                 (A) (A) (A) (A) (A) (A) (A) (A) (A) (A) (A) (A)
                 (A) (A) (A) (A) (A) (A) (A) (A) (A) (A) (A) (A)
                 (A) (A) (A) (A) (A) (A) (A) (A) (A) (A) (A) (A)
                 (A) (A) (A) (A) (A) (A) (A) (A) (A) (A) (A) (A)
                 (A) (A) (A) (A) (A) (A) (A) (A) (A) (A) (A) (A)
                 (A) (A) (A) (A) (A) (A) (A) (A) (A) (A) (A) (A)
                 (A) (A) (A) (A) (A) (A) (A) (A) (A) (A) (A) (A)
                 (A) (A) (A) (A) (A) (A) (A) (A) (A) (A) (A) (A)
                 (A) (A) (A) (A) (A) (A) (A) (A) (A) (A) (A) (A)
                 (A) (A) (A) (A) (A) (A) (A) (A) (A) (A) (A) (A)
                 (A) (A) (A) (A) (A) (A) (A) (A) (A) (A) (A) (A)
                 (A) (A) (A) (A) (A) (A) (A) (A) (A) (A) (A) (A)
                 (A) (A) (A) (A) (A) (A) (A) (A) (A) (A) (A) (A)
                 (A) (A) (A) (A) (A) (A) (A) (A) (A) (A) (A) (A)
                 (A) (A) (A) (A) (A) (A) (A) (A) (A) (A) (A) (A)
                 (A) (A) (A) (A) (A) (A) (A) (A) (A) (A) (A) (A)
                 (A) (A) (A) (A) (A) (A) (A) (A) (A) (A) (A) (A)
                 (A) (A) (A) (A) (A) (A) (A) (A) (A) (A) (A) (A)
                 (A) (A) (A) (A) (A) (A) (A) (A) (A) (A) (A) (A)
                 (A) (A)
 The electronic state is 1-A.
 Alpha  occ. eigenvalues --  -19.48057 -19.40727 -19.38021 -19.35817 -19.35274
 Alpha  occ. eigenvalues --  -19.31895 -10.51899 -10.48358 -10.45677 -10.45308
 Alpha  occ. eigenvalues --  -10.45239 -10.44242 -10.43857 -10.43002 -10.39091
 Alpha  occ. eigenvalues --  -10.39014 -10.33677  -1.32737  -1.26167  -1.25293
 Alpha  occ. eigenvalues --   -1.21516  -1.20402  -1.17501  -0.99199  -0.97173
 Alpha  occ. eigenvalues --   -0.93418  -0.89376  -0.87042  -0.85127  -0.82965
 Alpha  occ. eigenvalues --   -0.81718  -0.80897  -0.75471  -0.74210  -0.72373
 Alpha  occ. eigenvalues --   -0.68812  -0.67000  -0.66447  -0.66146  -0.65076
 Alpha  occ. eigenvalues --   -0.64841  -0.63216  -0.61908  -0.61741  -0.61059
 Alpha  occ. eigenvalues --   -0.59600  -0.59302  -0.58777  -0.58327  -0.57427
 Alpha  occ. eigenvalues --   -0.55985  -0.55406  -0.54747  -0.53727  -0.52336
 Alpha  occ. eigenvalues --   -0.52124  -0.51683  -0.51294  -0.49928  -0.48547
 Alpha  occ. eigenvalues --   -0.47794  -0.46647  -0.44014  -0.43864  -0.41787
 Alpha  occ. eigenvalues --   -0.40305
 Alpha virt. eigenvalues --   -0.14468  -0.12008  -0.11660  -0.10797  -0.09605
 Alpha virt. eigenvalues --   -0.09379  -0.08750  -0.07525  -0.07199  -0.06902
 Alpha virt. eigenvalues --   -0.06476  -0.05723  -0.05639  -0.05144  -0.04365
 Alpha virt. eigenvalues --   -0.04071  -0.03786  -0.03508  -0.03007  -0.02668
 Alpha virt. eigenvalues --   -0.02045  -0.01811  -0.01526  -0.01218  -0.00929
 Alpha virt. eigenvalues --   -0.00413   0.00206   0.01153   0.01535   0.01761
 Alpha virt. eigenvalues --    0.01964   0.02131   0.02610   0.02904   0.03341
 Alpha virt. eigenvalues --    0.03918   0.03980   0.04360   0.04677   0.04990
 Alpha virt. eigenvalues --    0.05782   0.05889   0.06122   0.06561   0.06810
 Alpha virt. eigenvalues --    0.07107   0.07974   0.08038   0.08352   0.08626
 Alpha virt. eigenvalues --    0.08910   0.09079   0.09572   0.10076   0.10489
 Alpha virt. eigenvalues --    0.10619   0.11067   0.11153   0.12094   0.12251
 Alpha virt. eigenvalues --    0.12532   0.12605   0.13449   0.13674   0.14067
 Alpha virt. eigenvalues --    0.14253   0.14634   0.15459   0.16312   0.16665
 Alpha virt. eigenvalues --    0.17006   0.17443   0.17820   0.18163   0.18374
 Alpha virt. eigenvalues --    0.18847   0.19913   0.20320   0.21093   0.21479
 Alpha virt. eigenvalues --    0.22237   0.22735   0.22869   0.23497   0.23952
 Alpha virt. eigenvalues --    0.24738   0.24898   0.24988   0.25686   0.25933
 Alpha virt. eigenvalues --    0.26180   0.26961   0.27336   0.27954   0.28472
 Alpha virt. eigenvalues --    0.29236   0.29959   0.30874   0.31276   0.31660
 Alpha virt. eigenvalues --    0.32171   0.33366   0.33625   0.34106   0.34734
 Alpha virt. eigenvalues --    0.35490   0.36588   0.37517   0.37840   0.38061
 Alpha virt. eigenvalues --    0.39089   0.40067   0.40693   0.41138   0.42289
 Alpha virt. eigenvalues --    0.42869   0.43920   0.44897   0.45352   0.46430
 Alpha virt. eigenvalues --    0.47131   0.47668   0.48294   0.49140   0.50299
 Alpha virt. eigenvalues --    0.51252   0.51661   0.52742   0.53206   0.53302
 Alpha virt. eigenvalues --    0.54058   0.54813   0.55057   0.55715   0.56015
 Alpha virt. eigenvalues --    0.56712   0.57209   0.57892   0.58100   0.58417
 Alpha virt. eigenvalues --    0.59176   0.59943   0.61148   0.61450   0.62277
 Alpha virt. eigenvalues --    0.62686   0.63593   0.64402   0.64874   0.65463
 Alpha virt. eigenvalues --    0.66336   0.67276   0.67922   0.70675   0.72151
 Alpha virt. eigenvalues --    0.72817   0.74720   0.76648   0.77372   0.79429
 Alpha virt. eigenvalues --    0.81769   0.85449   0.87875   0.88843   0.89914
 Alpha virt. eigenvalues --    0.90665   0.92049   0.92981   0.93569   0.94935
 Alpha virt. eigenvalues --    0.97056   0.97975   0.99481   0.99697   1.00265
 Alpha virt. eigenvalues --    1.03537   1.05138   1.05721   1.06926   1.07737
 Alpha virt. eigenvalues --    1.10533   1.10570   1.12457   1.12973   1.14660
 Alpha virt. eigenvalues --    1.15364   1.16531   1.17428   1.19489   1.20290
 Alpha virt. eigenvalues --    1.21184   1.22638   1.23756   1.24918   1.26429
 Alpha virt. eigenvalues --    1.27362   1.28748   1.29679   1.30399   1.31633
 Alpha virt. eigenvalues --    1.31937   1.32843   1.33571   1.33943   1.35436
 Alpha virt. eigenvalues --    1.35654   1.37117   1.37741   1.38499   1.39738
 Alpha virt. eigenvalues --    1.41448   1.42035   1.42332   1.43445   1.44555
 Alpha virt. eigenvalues --    1.45636   1.45915   1.46085   1.46631   1.47167
 Alpha virt. eigenvalues --    1.48340   1.48772   1.49203   1.50025   1.51053
 Alpha virt. eigenvalues --    1.51640   1.51852   1.52594   1.54181   1.55945
 Alpha virt. eigenvalues --    1.56513   1.57597   1.58034   1.58625   1.60150
 Alpha virt. eigenvalues --    1.60622   1.61454   1.62937   1.63553   1.65379
 Alpha virt. eigenvalues --    1.66595   1.67709   1.68165   1.69008   1.70593
 Alpha virt. eigenvalues --    1.72019   1.72824   1.73558   1.74573   1.75597
 Alpha virt. eigenvalues --    1.76412   1.77828   1.79488   1.80071   1.81439
 Alpha virt. eigenvalues --    1.82177   1.83788   1.85147   1.87651   1.89044
 Alpha virt. eigenvalues --    1.89872   1.92520   1.93273   1.94498   1.95059
 Alpha virt. eigenvalues --    1.96774   1.98039   1.98678   1.99546   2.01260
 Alpha virt. eigenvalues --    2.02264   2.02737   2.04787   2.05689   2.06603
 Alpha virt. eigenvalues --    2.08564   2.09076   2.11993   2.13530   2.14556
 Alpha virt. eigenvalues --    2.15224   2.18265   2.19386   2.22158   2.27323
 Alpha virt. eigenvalues --    2.28576   2.30207   2.32430   2.34600   2.35439
 Alpha virt. eigenvalues --    2.36033   2.37267   2.37619   2.40019   2.40329
 Alpha virt. eigenvalues --    2.40998   2.41440   2.42550   2.43704   2.44087
 Alpha virt. eigenvalues --    2.44838   2.45748   2.47744   2.48249   2.48978
 Alpha virt. eigenvalues --    2.49420   2.51071   2.52001   2.52683   2.54273
 Alpha virt. eigenvalues --    2.56259   2.57445   2.58863   2.59557   2.61942
 Alpha virt. eigenvalues --    2.63712   2.65370   2.66602   2.68747   2.71592
 Alpha virt. eigenvalues --    2.72320   2.73428   2.74943   2.76065   2.78240
 Alpha virt. eigenvalues --    2.80126   2.81267   2.82644   2.84271   2.84831
 Alpha virt. eigenvalues --    2.86623   2.87253   2.89256   2.91566   2.92465
 Alpha virt. eigenvalues --    2.93467   2.94733   2.95822   2.98409   2.99896
 Alpha virt. eigenvalues --    3.00103   3.01992   3.03551   3.05290   3.06119
 Alpha virt. eigenvalues --    3.07212   3.08516   3.10661   3.11275   3.12770
 Alpha virt. eigenvalues --    3.13791   3.16806   3.18171   3.19706   3.21824
 Alpha virt. eigenvalues --    3.26045   3.28918   3.29967   3.38163   3.48026
 Alpha virt. eigenvalues --    3.57084   3.61305   3.62559   3.67307   3.67889
 Alpha virt. eigenvalues --    3.68176   3.69002   3.70456   3.71172   3.71474
 Alpha virt. eigenvalues --    3.77453   3.80347   3.81614   3.84132   3.84448
 Alpha virt. eigenvalues --    3.90693   3.94417   3.95538   3.98414   4.01225
 Alpha virt. eigenvalues --    4.02878   4.03398   4.06760   4.11251   4.14270
 Alpha virt. eigenvalues --    4.15976   4.24609   5.00850   5.02949   5.03933
 Alpha virt. eigenvalues --    5.06314   5.06585   5.09511   5.16469   5.20546
 Alpha virt. eigenvalues --    5.26833   5.30268   5.31221   5.37103   5.38578
 Alpha virt. eigenvalues --    5.51600   5.56617   5.58728   5.62919   5.83056
 Alpha virt. eigenvalues --   23.69259  23.73966  23.78948  23.80945  23.81214
 Alpha virt. eigenvalues --   23.82611  23.85788  23.88460  23.91472  23.92218
 Alpha virt. eigenvalues --   23.94848  49.90851  49.92096  49.93018  49.97291
 Alpha virt. eigenvalues --   50.00297  50.02100
          Condensed to atoms (all electrons):
               1          2          3          4          5          6
     1  C    8.826889  -2.776735   2.127513  -2.285357   0.769463  -0.498747
     2  C   -2.776735  14.980148  -9.857181   4.810003  -0.641233  -0.856950
     3  C    2.127513  -9.857181  24.896536 -11.027776   1.802094  -1.370089
     4  C   -2.285357   4.810003 -11.027776  19.086487  -5.736414   1.831502
     5  C    0.769463  -0.641233   1.802094  -5.736414  16.337210  -7.401774
     6  C   -0.498747  -0.856950  -1.370089   1.831502  -7.401774  15.469716
     7  O    0.044764   0.051714   0.175355  -0.208146   0.002681   0.209673
     8  O    0.206435  -0.347899   0.182885  -0.466263   0.294001  -0.066157
     9  O    0.056621   0.406221  -0.409715  -0.087699   0.058417  -0.011655
    10  O   -0.381668   0.041543   0.214436   0.048074   0.156137  -0.605777
    11  H    0.366292  -0.012592  -0.015203   0.008890   0.035489  -0.023020
    12  H    0.429826  -0.056732  -0.011493   0.009838  -0.012866   0.027949
    13  H   -0.007358   0.387634   0.041103  -0.055622   0.051978  -0.037176
    14  H    0.011914  -0.056782   0.326327  -0.002693   0.023132   0.017033
    15  H    0.022397  -0.014360   0.129174   0.264775  -0.080463   0.022805
    16  H    0.008654  -0.036696   0.032490  -0.138225   0.427706   0.001768
    17  H    0.040015  -0.023587   0.049745  -0.059816   0.082192   0.270904
    18  O    0.026493  -0.065398   0.031479  -0.137151   0.459815  -0.268141
    19  C   -0.300629   0.149173  -0.084476   0.113326  -0.051359  -0.229117
    20  H    0.033846  -0.017126   0.003749  -0.007101  -0.004297   0.012300
    21  H   -0.006843   0.011113  -0.002504  -0.005523   0.010886  -0.021321
    22  H    0.004766  -0.000481   0.003689   0.000507  -0.014146   0.039382
    23  C    0.000627   0.040012   0.010910   0.073107  -0.377821   0.038489
    24  H   -0.000335   0.001340   0.035907   0.035714  -0.026119  -0.034855
    25  H    0.000381   0.000210  -0.003612  -0.010955   0.051480  -0.005611
    26  H    0.000110  -0.002823  -0.011174   0.002817  -0.067145   0.056369
    27  C   -0.024060   0.007661  -0.199541  -0.246913   0.224168  -0.022048
    28  H    0.003068  -0.004272   0.032550  -0.045602   0.003578  -0.007920
    29  H   -0.003452   0.005865  -0.030204  -0.023491   0.025923   0.021194
    30  H    0.001959  -0.002598  -0.001357   0.058185  -0.021439   0.002287
    31  C   -0.196478   0.478166  -1.007892   0.478335  -0.144080   0.079200
    32  O    0.071651  -0.255552   0.219658  -0.045496  -0.009016   0.009990
    33  C   -0.038423  -0.254127   0.409021  -0.128386   0.050116  -0.046003
    34  H    0.002605  -0.003901   0.001886  -0.010809   0.001050   0.000204
    35  H   -0.000059   0.007708  -0.019847   0.012980  -0.000959  -0.000043
    36  H   -0.000527   0.004582  -0.006117  -0.000905  -0.000013  -0.000068
               7          8          9         10         11         12
     1  C    0.044764   0.206435   0.056621  -0.381668   0.366292   0.429826
     2  C    0.051714  -0.347899   0.406221   0.041543  -0.012592  -0.056732
     3  C    0.175355   0.182885  -0.409715   0.214436  -0.015203  -0.011493
     4  C   -0.208146  -0.466263  -0.087699   0.048074   0.008890   0.009838
     5  C    0.002681   0.294001   0.058417   0.156137   0.035489  -0.012866
     6  C    0.209673  -0.066157  -0.011655  -0.605777  -0.023020   0.027949
     7  O    7.702245   0.025635  -0.016881  -0.079914   0.001939   0.004814
     8  O    0.025635   8.220621   0.033711  -0.004650  -0.016549   0.002895
     9  O   -0.016881   0.033711   8.165738  -0.004037  -0.000777  -0.000224
    10  O   -0.079914  -0.004650  -0.004037   8.570226  -0.010751  -0.056469
    11  H    0.001939  -0.016549  -0.000777  -0.010751   0.345788  -0.018443
    12  H    0.004814   0.002895  -0.000224  -0.056469  -0.018443   0.423423
    13  H   -0.041396   0.000406  -0.001517   0.007171   0.002105  -0.003895
    14  H    0.004503   0.015434  -0.046525  -0.002704   0.000490  -0.000061
    15  H   -0.000440  -0.048973   0.004100   0.001702  -0.000561   0.000023
    16  H    0.009280   0.005636  -0.000270   0.004669  -0.000073   0.000032
    17  H   -0.042287   0.001063   0.000187  -0.031197  -0.000029  -0.000225
    18  O    0.030784   0.015478   0.000394   0.004951  -0.000362   0.000063
    19  C   -0.020994  -0.016669   0.001425   0.095909  -0.001008  -0.009498
    20  H   -0.000272   0.000312   0.000005  -0.038568  -0.000184   0.000514
    21  H    0.009414   0.000189  -0.000000  -0.054389   0.000256   0.002454
    22  H   -0.001812   0.000088   0.000019  -0.044231  -0.000172   0.000047
    23  C   -0.000055   0.000036   0.000148  -0.017032  -0.000110   0.000033
    24  H   -0.000275  -0.003173  -0.000026   0.000449   0.000000  -0.000000
    25  H   -0.000066   0.000120   0.000018   0.000085  -0.000000  -0.000000
    26  H    0.000453   0.001159  -0.000007  -0.000587  -0.000002   0.000000
    27  C    0.002769   0.115885   0.009466   0.005946  -0.000071   0.000319
    28  H   -0.000019  -0.051789  -0.000262  -0.000006  -0.000256   0.000001
    29  H    0.000002  -0.036222   0.000421   0.000755   0.000160   0.000004
    30  H    0.000046  -0.068076  -0.000340  -0.000652  -0.000157  -0.000006
    31  C    0.013320   0.009060   0.262947  -0.006402   0.014729   0.002165
    32  O    0.015083   0.006474  -0.172772   0.005124  -0.019612   0.004301
    33  C    0.009538  -0.016022  -0.419712   0.009393   0.010297  -0.001464
    34  H    0.000001  -0.000217  -0.001835   0.000039   0.000123   0.000003
    35  H   -0.000036   0.000120  -0.000930  -0.000006  -0.000020  -0.000002
    36  H   -0.000005   0.000076   0.016333  -0.000002  -0.000024  -0.000002
              13         14         15         16         17         18
     1  C   -0.007358   0.011914   0.022397   0.008654   0.040015   0.026493
     2  C    0.387634  -0.056782  -0.014360  -0.036696  -0.023587  -0.065398
     3  C    0.041103   0.326327   0.129174   0.032490   0.049745   0.031479
     4  C   -0.055622  -0.002693   0.264775  -0.138225  -0.059816  -0.137151
     5  C    0.051978   0.023132  -0.080463   0.427706   0.082192   0.459815
     6  C   -0.037176   0.017033   0.022805   0.001768   0.270904  -0.268141
     7  O   -0.041396   0.004503  -0.000440   0.009280  -0.042287   0.030784
     8  O    0.000406   0.015434  -0.048973   0.005636   0.001063   0.015478
     9  O   -0.001517  -0.046525   0.004100  -0.000270   0.000187   0.000394
    10  O    0.007171  -0.002704   0.001702   0.004669  -0.031197   0.004951
    11  H    0.002105   0.000490  -0.000561  -0.000073  -0.000029  -0.000362
    12  H   -0.003895  -0.000061   0.000023   0.000032  -0.000225   0.000063
    13  H    0.383393  -0.003175   0.000064   0.000042   0.000310   0.000120
    14  H   -0.003175   0.435216  -0.005252  -0.000167  -0.000660   0.001830
    15  H    0.000064  -0.005252   0.476293  -0.003366  -0.000138   0.011954
    16  H    0.000042  -0.000167  -0.003366   0.486400   0.000045  -0.037265
    17  H    0.000310  -0.000660  -0.000138   0.000045   0.426285   0.012787
    18  O    0.000120   0.001830   0.011954  -0.037265   0.012787   7.878291
    19  C   -0.004229  -0.001036  -0.000352   0.001464  -0.006570  -0.004951
    20  H    0.000035  -0.000003   0.000010  -0.000015   0.000241  -0.000029
    21  H   -0.000040   0.000008   0.000005  -0.000029   0.001862   0.000166
    22  H    0.000026  -0.000004   0.000001   0.000036   0.000436   0.000111
    23  C   -0.000290  -0.002477   0.005777   0.002251  -0.001524   0.152463
    24  H   -0.000001  -0.000210  -0.000295  -0.004769   0.000157  -0.031688
    25  H   -0.000000  -0.000006  -0.000129   0.000023  -0.000020  -0.062326
    26  H    0.000000   0.000019   0.000314   0.013615  -0.000479  -0.038790
    27  C    0.000332   0.004285  -0.014808   0.003896   0.000682  -0.002632
    28  H    0.000002  -0.000154   0.014312   0.000095  -0.000006   0.000739
    29  H   -0.000001   0.000093  -0.003577   0.002566   0.000033  -0.001083
    30  H    0.000000   0.000007  -0.000258  -0.000153  -0.000005   0.000093
    31  C    0.004796  -0.001284   0.000288  -0.000228  -0.000665   0.002154
    32  O   -0.008778  -0.000820  -0.000526   0.000005   0.000058  -0.000117
    33  C    0.002304  -0.002784  -0.003067  -0.000016  -0.000052  -0.000184
    34  H    0.000023   0.000032   0.000127   0.000000  -0.000000   0.000004
    35  H   -0.000041   0.000023  -0.000047  -0.000000   0.000000  -0.000003
    36  H   -0.000001   0.000032   0.000008   0.000000  -0.000000   0.000000
              19         20         21         22         23         24
     1  C   -0.300629   0.033846  -0.006843   0.004766   0.000627  -0.000335
     2  C    0.149173  -0.017126   0.011113  -0.000481   0.040012   0.001340
     3  C   -0.084476   0.003749  -0.002504   0.003689   0.010910   0.035907
     4  C    0.113326  -0.007101  -0.005523   0.000507   0.073107   0.035714
     5  C   -0.051359  -0.004297   0.010886  -0.014146  -0.377821  -0.026119
     6  C   -0.229117   0.012300  -0.021321   0.039382   0.038489  -0.034855
     7  O   -0.020994  -0.000272   0.009414  -0.001812  -0.000055  -0.000275
     8  O   -0.016669   0.000312   0.000189   0.000088   0.000036  -0.003173
     9  O    0.001425   0.000005  -0.000000   0.000019   0.000148  -0.000026
    10  O    0.095909  -0.038568  -0.054389  -0.044231  -0.017032   0.000449
    11  H   -0.001008  -0.000184   0.000256  -0.000172  -0.000110   0.000000
    12  H   -0.009498   0.000514   0.002454   0.000047   0.000033  -0.000000
    13  H   -0.004229   0.000035  -0.000040   0.000026  -0.000290  -0.000001
    14  H   -0.001036  -0.000003   0.000008  -0.000004  -0.002477  -0.000210
    15  H   -0.000352   0.000010   0.000005   0.000001   0.005777  -0.000295
    16  H    0.001464  -0.000015  -0.000029   0.000036   0.002251  -0.004769
    17  H   -0.006570   0.000241   0.001862   0.000436  -0.001524   0.000157
    18  O   -0.004951  -0.000029   0.000166   0.000111   0.152463  -0.031688
    19  C    5.426968   0.387035   0.420561   0.383625  -0.007848   0.000178
    20  H    0.387035   0.441183  -0.020784  -0.011022  -0.000091  -0.000000
    21  H    0.420561  -0.020784   0.437198  -0.020284   0.000068  -0.000000
    22  H    0.383625  -0.011022  -0.020284   0.440801   0.000077   0.000000
    23  C   -0.007848  -0.000091   0.000068   0.000077   5.157357   0.404463
[...]
 5409,0.00164072,0.00049940,0.00000380,0.00102828,-0.00104140,0.0000365
 9,-0.00003740,0.00012486,-0.00001664,-0.00005504,-0.00001068,0.0001089
 3,0.00001133,-0.00003591,0.00060905,-0.00082075,-0.00014450,-0.0000672
 2,-0.00001758,-0.00001489,0.00000779,0.00007573,0.00003325,-0.00010891
 ,0.00002274,0.00005769,0.00273769,-0.00085863,0.00107050,-0.00012524,0
 .00051772,-0.00007175,-0.00053099,0.00035291,-0.00010419,-0.00018674,-
 0.00015011,0.00014076,0.09111631,-0.22204493,0.75146179,-0.00326733,-0
 .00055647,0.00158040,-0.00582648,0.00126719,0.00082040,-0.00328182,0.0
 0015338,0.00060251,-0.00045234,-0.00101696,0.00049945,0.00001007,0.000
 29975,-0.00016784,-0.00209563,-0.00072697,0.00019739,0.00267223,-0.001
 63816,-0.00246681,-0.00013952,0.00085120,0.00033449,0.02720621,-0.0004
 6165,0.00021958,0.00134501,0.00112896,0.00146181,0.00061692,0.00060163
 ,0.00153262,0.00014775,-0.00021847,0.00035243,0.00127360,-0.00122959,-
 0.00180721,0.00005586,-0.00002887,0.00037121,0.00017688,0.00010895,-0.
 00002357,0.00004581,-0.00011024,0.00000619,0.00034686,0.00010080,-0.00
 015545,0.00014943,0.00010800,0.00020212,0.00000275,0.00020110,0.000040
 86,-0.00001824,-0.00005465,0.00004161,-0.00000146,-0.00002148,0.000045
 45,-0.00002195,0.00001898,-0.00008014,-0.00000975,0.00003252,0.0000021
 7,0.00000453,-0.00002118,0.00001312,-0.00000039,0.00000217,-0.00000072
 ,-0.00000091,-0.00000108,-0.00000474,0.00039996,-0.00004714,0.00017218
 ,-0.00002988,0.00001669,-0.00004716,-0.00013033,0.00010701,0.00005527,
 0.00009724,-0.00001705,-0.00004751,-0.08735532,0.05289808,-0.04481276,
 0.04492309,-0.00043701,-0.00194108,-0.00706014,0.00006317,-0.00499517,
 -0.00104291,0.00330386,0.00319458,0.02146440,-0.00333135,-0.00062550,-
 0.00256162,0.00225872,0.00038403,0.00095869,-0.00200200,-0.00317557,0.
 00135947,-0.00004146,0.00274120,-0.00281409,0.00208438,0.00128584,-0.0
 0028305,-0.00031862,-0.11635119,0.00444406,0.00034624,0.00415426,0.003
 54784,0.00110962,-0.00091153,-0.00103047,0.00015446,0.00045857,-0.0011
 7835,-0.00113566,-0.00095793,-0.00175966,-0.00030168,0.00043611,-0.001
 65975,-0.00047345,0.00071928,0.00025097,-0.00000491,-0.00015562,-0.000
 88072,0.00005955,0.00037813,-0.00020517,-0.00004014,-0.00041020,-0.000
 65373,0.00005048,0.00029394,0.00021977,-0.00003143,-0.00009111,0.00012
 042,-0.00001829,-0.00010935,-0.00003059,0.00007927,0.00000601,-0.00019
 889,-0.00022677,0.00044722,0.00018672,-0.00006188,0.00005749,-0.000026
 22,-0.00002861,-0.00001219,0.00001471,0.00008860,0.00000162,-0.0000855
 0,-0.00077734,0.00032212,0.00000282,-0.00015468,0.00006422,-0.00006426
 ,0.00007663,-0.00005489,-0.00004560,0.00032438,-0.00002615,-0.00002611
 ,0.05584776,-0.51758396,0.30587942,-0.06035930,0.63671077,0.00189573,-
 0.00063413,0.00083112,-0.00096240,0.00571792,0.00051413,-0.00106406,0.
 00313661,-0.00567141,0.00157310,0.00040538,0.00202341,-0.00125669,0.00
 066915,-0.00036286,-0.00103800,0.00278307,-0.00050931,0.00107973,-0.00
 502182,-0.00234218,0.00070705,-0.00129078,0.00066203,0.00216943,0.0121
 6165,0.03883749,0.00007092,-0.00150190,-0.00677367,-0.00046221,-0.0011
 2301,-0.00430587,-0.00020529,-0.00011780,0.00045275,0.00072197,-0.0018
 6035,-0.00252010,0.00064749,-0.00042328,0.00184933,0.00047785,-0.00039
 995,-0.00015972,0.00005558,-0.00005488,0.00048185,0.00037035,-0.000401
 15,-0.00002968,0.00032001,-0.00094643,0.00025360,0.00004094,-0.0017746
 2,0.00079907,-0.00003620,0.00020424,-0.00035271,0.00002240,0.00011556,
 -0.00004317,-0.00011844,-0.00001175,0.00016165,-0.00034202,0.00038311,
 0.00000378,0.00011157,-0.00005562,0.00003551,0.00001734,-0.00005794,-0
 .00002694,0.00002788,-0.00001673,0.00001731,-0.00083505,0.00017004,-0.
 00056487,0.00018236,-0.00031795,0.00008217,0.00016422,-0.00009437,0.00
 010364,-0.00006741,0.00008584,-0.00007520,-0.04531806,0.27883438,-0.32
 696837,0.05125502,-0.33515558,0.33622039,0.00059508,0.00014531,0.00027
 575,0.00061936,0.00027416,0.00016118,0.00516213,0.00015671,0.00094457,
 -0.00032716,-0.00019960,-0.00137878,0.00050111,0.00005875,0.00003281,0
 .00028295,0.00013436,-0.00002419,-0.00030161,-0.00000205,0.00040775,-0
 .00002322,-0.00003480,0.00004754,0.00809225,-0.00277774,-0.00688692,-0
 .00014651,-0.00023287,-0.00055475,-0.00035604,-0.00012589,-0.00007478,
 -0.00003469,0.00001266,-0.00002574,-0.00020664,0.00008380,0.00006304,0
 .00003338,-0.00004501,0.00078596,-0.00006601,0.00003188,0.00002585,-0.
 00002906,-0.00001488,-0.00013584,-0.00005916,-0.00001526,0.00001954,-0
 .00005555,-0.00015132,-0.00001941,-0.00000223,-0.00013765,0.00005951,-
 0.00000165,0.00001722,-0.00002076,0.00000190,0.00001004,-0.00000774,-0
 .00000872,-0.00000137,0.00001560,-0.00005058,0.00005978,0.00001493,0.0
 0000868,0.00000723,-0.00000324,-0.00000111,-0.00000968,-0.00000574,0.0
 0000592,0.00000338,0.00000091,-0.00010375,-0.00001614,-0.00000346,-0.0
 0000374,0.00001085,0.00001175,0.00000803,0.00000261,-0.00002344,0.0000
 0997,0.00000113,-0.00000200,-0.09562056,-0.00142173,-0.01922603,0.0257
 0087,0.00442550,-0.00896454,0.53600288,-0.00000380,-0.00022487,-0.0013
 1348,0.00024379,-0.00182510,-0.00051295,-0.00188711,-0.00387911,-0.000
 83481,-0.00092052,-0.00029905,-0.00046303,0.00045205,-0.00004741,0.000
 15136,-0.00022073,-0.00050159,0.00029017,-0.00021054,0.00095429,-0.000
 28096,0.00033929,0.00030832,0.00012409,-0.00638648,-0.00855465,-0.0437
 2604,-0.00003380,0.00049330,0.00086217,0.00023851,0.00001644,-0.000090
 44,0.00007607,0.00007603,-0.00016282,-0.00025713,0.00006454,-0.0000522
 9,-0.00000700,-0.00030405,-0.00121471,-0.00002526,0.00004981,0.0000234
 7,-0.00001275,-0.00001775,-0.00017082,-0.00002723,0.00005910,-0.000007
 64,0.00001778,0.00005654,-0.00006680,0.00000207,0.00017158,-0.00004397
 ,-0.00000034,-0.00002510,0.00004056,-0.00000255,-0.00001756,0.00000010
 ,0.00001336,0.00000454,-0.00003128,-0.00000888,0.00004625,0.00001656,-
 0.00001104,0.00000600,0.00000174,-0.00000334,0.00000078,0.00000354,0.0
 0000823,-0.00000551,-0.00000981,0.00001304,0.00004054,-0.00000616,-0.0
 0002654,-0.00001759,-0.00000580,-0.00000231,0.00000952,0.00001902,0.00
 006664,-0.00000668,-0.00002623,-0.00198775,-0.07598199,-0.00315134,0.0
 0937757,-0.00815828,0.04329208,0.00307681,0.61821543,-0.00023573,0.000
 08890,0.00043028,0.00000598,0.00015696,0.00024195,-0.00020318,0.000235
 30,0.00477480,-0.00040980,-0.00014954,-0.00033794,0.00022784,0.0001590
 0,0.00011674,-0.00030428,0.00002385,0.00012794,0.00021163,-0.00013970,
 -0.00044871,0.00048750,0.00002209,0.00015546,-0.00707748,-0.01426673,-
 0.02875995,0.00015920,0.00005880,-0.00039081,-0.00013355,-0.00001163,0
 .00009666,0.00002213,0.00000270,0.00002341,0.00020161,0.00003464,0.000
 03155,-0.00005516,-0.00007103,-0.00057192,0.00001677,0.00002036,0.0000
 3120,-0.00000174,-0.00001900,-0.00009203,0.00002968,0.00000514,-0.0000
 2527,0.00006350,-0.00030933,-0.00009119,-0.00000493,-0.00017822,0.0001
 9260,-0.00000784,0.00000422,-0.00002025,0.00000264,0.00000757,0.000001
 62,-0.00001987,0.00000200,0.00000635,-0.00013121,0.00018246,0.00002800
 ,0.00001433,0.00000364,0.00000490,-0.00000299,-0.00001531,-0.00000465,
 0.00002614,-0.00000560,-0.00001197,-0.00029599,0.00015067,-0.00009281,
 0.00000091,-0.00004411,0.00001205,0.00002782,-0.00003382,0.00000308,0.
 00003193,0.00001237,-0.00000715,-0.02125510,-0.00112802,-0.21604228,-0
 .00940098,0.01608411,-0.02449590,-0.01249204,0.01861951,0.50630396,0.0
 0002146,-0.00000280,0.00000710,-0.00002960,0.00009596,0.00007841,0.000
 25799,-0.00030034,-0.00046839,0.00002503,0.00005976,-0.00009420,0.0000
 1252,-0.00001430,-0.00001985,0.00001650,0.00003669,-0.00001032,0.00001
 426,-0.00004317,0.00005609,-0.00010285,-0.00006404,0.00000031,0.000985
 45,-0.00011851,0.00027138,-0.00001126,-0.00002632,0.00001109,-0.000010
 68,0.00000333,-0.00001492,-0.00000569,-0.00000535,0.00000630,0.0000032
 3,-0.00000460,0.00000384,-0.00000883,0.00002699,0.00004452,0.00001412,
 -0.00002871,-0.00001668,-0.00000571,-0.00000031,0.00000655,0.00000204,
 -0.00000555,0.00000269,-0.00000445,0.00000192,0.00001704,-0.00000038,0
 .00000976,-0.00001363,0.00000104,0.00000009,0.00000042,-0.00000026,0.0
 0000038,0.00000106,0.00000061,-0.00000047,0.00000144,0.00000084,-0.000
 00513,-0.00001054,0.00000595,-0.00000073,-0.00000040,-0.00000014,0.000
 00007,-0.00000188,-0.00000108,-0.00000118,0.00000472,0.00008371,-0.000
 02766,-0.00000950,0.00002848,0.00002705,-0.00000992,-0.00001513,0.0000
 0202,-0.00001059,-0.00001501,-0.00001388,0.00002440,-0.00522529,0.0028
 4458,-0.00052231,-0.00005265,-0.00157668,0.00050263,-0.26998193,0.0978
 9906,-0.03996851,0.29185618,-0.00000487,0.00000402,-0.00000833,-0.0000
 1414,-0.00006326,0.00001878,0.00031879,-0.00000659,0.00043738,-0.00005
 033,0.00009298,-0.00018856,0.00007256,-0.00000875,0.00000956,-0.000009
 81,0.00002223,0.00002048,0.00001382,-0.00000157,-0.00002724,0.00001642
 ,-0.00011707,0.00000440,-0.00023863,-0.00103565,-0.00185412,-0.0000004
 4,-0.00001015,0.00001330,0.00003156,0.00001676,0.00005383,0.00000073,-
 0.00000414,-0.00000918,0.00001493,-0.00000049,0.00002853,-0.00003224,0
 .00002682,-0.00003344,0.00000407,-0.00004036,-0.00001538,-0.00000048,-
 0.00000386,-0.00002045,0.00000390,-0.00000077,-0.00000052,-0.00000204,
 -0.00006723,-0.00000909,0.00000255,0.00000107,0.00000842,0.00000072,-0
 .00000027,0.00000119,-0.00000088,-0.00000071,0.00000180,0.00000127,-0.
 00000075,0.00000320,-0.00002811,0.00003326,-0.00001489,0.00000931,0.00
 000193,0.00000104,-0.00000062,-0.00000327,-0.00000252,0.00000434,-0.00
 000310,0.00000507,-0.00006079,0.00015410,-0.00008502,0.00002584,-0.000
 02856,0.00001071,-0.00000421,-0.00003461,0.00001062,-0.00002379,-0.000
 00957,0.00004546,0.00030061,-0.00366329,0.00294393,-0.00054095,0.00102
 904,0.00144806,0.09874019,-0.08219205,0.01247948,-0.10639013,0.0867876
 5,0.00008717,0.00007404,0.00026532,0.00012822,0.00026262,0.00025664,0.
 00124792,-0.00012573,-0.00008370,-0.00044571,-0.00019121,-0.00047877,0
 .00013025,-0.00001550,-0.00004051,-0.00001063,0.00011271,0.00000077,0.
 00000574,-0.00013552,0.00001066,0.00011000,0.00014777,0.00044618,0.001
 81111,-0.00055556,-0.00035582,0.00001539,-0.00011414,-0.00026312,-0.00
 014942,-0.00000900,-0.00006239,-0.00000491,0.00000018,0.00002494,0.000
 00450,0.00000402,0.00001403,0.00002997,0.00001292,0.00017425,0.0000082
 2,-0.00001327,0.00000036,-0.00000249,-0.00000818,-0.00005265,0.0000044
 9,-0.00002075,0.00000524,0.00002863,0.00001499,0.00004406,0.00000210,-
 0.00004819,0.00000081,-0.00000181,0.00000845,-0.00001399,0.00000168,0.
 00000409,0.00000033,-0.00000560,0.00000146,0.00000503,-0.00000672,-0.0
 0000173,-0.00000819,0.00000131,-0.00000809,0.00000486,0.00000340,-0.00
 000120,0.00000274,-0.00000125,0.00000093,-0.00000016,0.00004062,0.0000
 2397,-0.00013343,0.00004652,-0.00011779,-0.00001085,0.00001284,0.00000
 229,0.00007789,0.00004438,0.00000982,-0.00003894,-0.03536390,0.0142273
 2,-0.00224730,0.00414822,0.00068774,-0.00571310,-0.04162028,0.01330134
 ,-0.05033623,0.04348825,-0.01756480,0.05431525,-0.00006710,0.00000868,
 0.00004791,0.00002459,0.00001750,0.00000381,0.00003926,0.00026366,0.00
 025652,-0.00004624,-0.00008358,0.00001453,0.00000046,0.00001612,0.0000
 0154,-0.00001398,-0.00003189,0.00000166,-0.00000201,-0.00001284,-0.000
 05425,0.00003662,0.00005837,0.00003464,0.00004030,0.00027725,-0.000224
 16,0.00002047,0.00001918,-0.00001623,0.00000198,-0.00000211,-0.0000140
 9,0.00000657,0.00000375,0.00000503,0.00001734,0.00001140,-0.00002361,0
 .00000292,-0.00001838,-0.00001375,-0.00000851,0.00002565,0.00001709,-0
 .00000116,-0.00000165,-0.00000676,0.00000211,0.00000327,-0.00000323,-0
 .00000020,0.00001952,-0.00000277,0.00000118,-0.00000831,0.00000895,-0.
 00000083,-0.00000013,-0.00000137,0.00000063,-0.00000032,-0.00000095,-0
 .00000039,0.00000039,-0.00000200,0.00001007,-0.00000804,0.00001056,-0.
 00000636,-0.00000132,-0.00000061,0.00000112,0.00000030,0.00000173,-0.0
 0000068,0.00000136,-0.00000384,0.00000676,-0.00003666,0.00001327,-0.00
 000441,-0.00001858,-0.00001058,0.00000625,0.00000770,0.00001106,0.0000
 1805,0.00000922,-0.00002432,0.00512928,0.00492883,-0.00396325,-0.00197
 911,0.00114724,-0.00259011,-0.16287291,-0.11357734,0.08399776,-0.01845
 232,-0.01826424,0.01379033,0.17639787,-0.00001472,-0.00000199,-0.00001
 306,0.00000672,-0.00001725,0.00000526,0.00040033,0.00014142,0.00050606
 ,-0.00004875,0.00005777,-0.00014691,0.00006489,0.00000530,0.00002030,-
 0.00002141,0.00000304,0.00002191,0.00002244,0.00000274,-0.00001205,0.0
 0003778,-0.00003904,-0.00000189,-0.00065838,-0.00107127,-0.00215237,0.
 00001243,0.00000073,-0.00000786,-0.00000657,-0.00000819,0.00002699,-0.
 00000620,-0.00000406,-0.00000108,-0.00000277,0.00001991,0.00004501,-0.
 00004591,0.00002431,-0.00005472,0.00001213,-0.00001120,-0.00000701,-0.
 00000083,-0.00000353,-0.00001914,-0.00000012,0.00000087,-0.00000145,0.
 00000007,-0.00005998,-0.00000804,-0.00000306,-0.00000932,0.00001172,-0
 .00000022,-0.00000005,-0.00000066,0.00000007,0.00000142,0.00000068,-0.
 00000210,0.00000006,0.00000011,-0.00002350,0.00003094,-0.00000991,0.00
 000886,0.00000210,0.00000180,-0.00000021,-0.00000321,-0.00000395,0.000
 00278,-0.00000335,0.00000244,-0.00007385,0.00003996,-0.00002572,0.0000
 0512,-0.00000081,0.00000748,0.00000688,-0.00000684,-0.00000179,0.00000
 261,-0.00000381,0.00000628,0.00237571,-0.00343580,0.00272457,-0.000249
 95,0.00172971,0.00089395,-0.11459426,-0.14579218,0.07176929,0.00893407
 ,0.00735620,-0.00665679,0.12237004,0.15415569,-0.00010140,0.00005176,0
 .00028332,-0.00008581,0.00034366,0.00025487,-0.00077196,-0.00026554,0.
 00002022,0.00010241,0.00011828,0.00025086,-0.00010482,0.00000892,-0.00
 002198,-0.00000848,0.00008769,-0.00004162,0.00008374,-0.00019982,-0.00
 006037,-0.00002111,-0.00006040,0.00000287,-0.00190556,-0.00091626,0.00
 082961,0.00003258,-0.00007457,-0.00013462,-0.00001950,-0.00000046,0.00
 003485,-0.00001062,-0.00001637,0.00003955,0.00009292,0.00000333,-0.000
 05346,0.00000967,0.00000596,-0.00019588,0.00002759,-0.00002407,-0.0000
 1684,0.00000172,0.00000276,0.00003549,0.00001521,-0.00000926,-0.000002
 75,-0.00000040,-0.00000849,0.00001985,0.00000080,-0.00002820,0.0000050
 5,0.00000006,0.00000364,-0.00000771,0.00000076,0.00000330,0.00000096,-
 0.00000287,-0.00000048,0.00000378,0.00000280,-0.00000518,-0.00000901,0
 .00000597,-0.00000293,0.00000135,0.00000270,-0.00000195,-0.00000315,-0
 .00000201,-0.00000315,0.00000310,-0.00002215,0.00000160,-0.00001808,0.
 00000577,-0.00000802,0.00000364,0.00000804,-0.00000212,0.00000513,-0.0
 0000409,-0.00000020,-0.00000396,0.02717259,0.02211601,-0.01167742,-0.0
 0501315,0.00010788,-0.00566873,0.08323821,0.07081717,-0.10120053,-0.00
 406488,-0.00405808,0.00255789,-0.08849129,-0.08104924,0.10831870,-0.00
 000430,-0.00000872,-0.00002941,0.00005365,-0.00007490,0.00000707,0.000
 80878,-0.00020221,-0.00028028,-0.00015045,-0.00008366,-0.00027948,0.00
 010154,-0.00001303,0.00000276,0.00000364,-0.00001648,0.00001741,-0.000
 02885,0.00002930,-0.00000930,0.00000602,-0.00000319,0.00006208,0.00089
 339,-0.00028647,-0.00210695,-0.00001145,0.00001483,0.00003633,0.000018
 79,0.00001507,0.00001891,0.00001123,0.00000517,-0.00001026,0.00000199,
 -0.00000162,-0.00001075,-0.00000153,-0.00000231,0.00007116,-0.00000595
 ,-0.00001182,0.00000043,-0.00000422,-0.00000426,-0.00003167,-0.0000012
 3,0.00000180,0.00000013,-0.00000440,-0.00000958,-0.00000123,0.00000506
 ,0.00000848,0.00000087,0.00000023,-0.00000127,0.00000191,-0.00000021,-
 0.00000258,0.,0.00000260,-0.00000005,0.00000082,-0.00000662,0.00000906
 ,-0.00000055,0.00000118,-0.00000026,-0.00000020,0.00000007,-0.00000100
 ,0.00000057,0.00000114,-0.00000010,0.00000062,0.00001843,0.00005228,-0
 .00004593,0.00001677,-0.00003132,-0.00000622,-0.00000410,-0.00001150,0
 .00001634,-0.00000232,0.00000145,0.00000921,-0.00286983,-0.00641691,-0
 .00238964,-0.00051198,-0.00009861,0.00084694,-0.04677167,0.01378817,0.
 00647305,0.00059382,0.02610510,0.01242145,0.00169237,-0.01851011,-0.01
 017343,0.04614840,-0.00000448,-0.00000158,-0.00004330,-0.00000570,-0.0
 0007753,-0.00008959,0.00019199,0.00054108,0.00057830,0.00003714,-0.000
 04505,-0.00001585,0.00001032,0.00001360,0.00001408,-0.00000906,-0.0000
 2281,0.00000184,-0.00001699,0.00003020,-0.00003283,-0.00000203,0.00001
 636,-0.00002265,0.00035545,0.00092996,0.00041239,0.00000271,0.00001590
 ,0.00002569,0.00000879,0.00000445,-0.00000828,0.00000595,0.00000468,-0
 .00000097,-0.00000758,-0.00000560,-0.00000598,-0.00000134,0.00002572,0
 .00007409,-0.00000976,0.00001759,0.00001418,-0.00000101,0.00000033,-0.
 00000185,-0.00000126,0.00000237,-0.00000089,-0.00000436,-0.00000228,-0
 .00000920,-0.00000019,0.00000480,0.00000457,-0.00000043,-0.00000163,0.
 00000186,0.00000018,-0.00000045,0.00000011,-0.00000043,0.00000091,-0.0
 0000049,0.00000028,0.00000085,0.00000662,-0.00000291,0.00000069,-0.000
 00061,-0.00000031,0.00000037,0.00000093,0.00000041,0.00000137,-0.00000
 211,-0.00000174,-0.00001955,0.00002443,-0.00001130,0.00000999,0.000000
 29,-0.00000053,0.00000452,-0.00000625,0.00000182,0.00000245,-0.0000054
 5,-0.00041300,0.00092100,0.00288616,0.00002616,0.00114558,0.00095898,0
 .01252793,-0.29272249,-0.10375100,-0.00131189,-0.00823001,-0.00330921,
 0.00287595,-0.01310026,-0.00693720,-0.01423876,0.31053449,-0.00003234,
 -0.00003797,-0.00019369,0.00009083,-0.00046924,-0.00001751,-0.00059878
 ,-0.00093490,0.00045295,-0.00033529,-0.00003848,-0.00017443,0.00016697
 ,0.00001690,0.00006415,-0.00012580,-0.00012985,0.00010176,-0.00003048,
 0.00021671,-0.00023355,0.00020896,0.00005986,0.00003177,-0.00137840,-0
 .00119874,-0.00851350,0.00002967,0.00013851,0.00010838,0.00001774,-0.0
 0002758,-0.00000609,0.00001688,0.00001149,-0.00004708,-0.00002772,0.00
 000793,-0.00000980,-0.00001012,-0.00007743,-0.00045536,0.00000269,0.00
 000473,0.00000185,-0.00000276,-0.00001187,-0.00006550,0.00000119,0.000
 01168,-0.00000885,0.00001671,-0.00004627,-0.00002925,-0.00000052,-0.00
 000152,0.00002867,-0.00000214,-0.00000284,0.00000399,-0.00000030,-0.00
 000380,-0.00000185,0.00000128,0.00000069,-0.00000942,-0.00002894,0.000
 04801,0.00000303,0.00000299,0.00000222,0.00000100,-0.00000110,-0.00000
 336,-0.00000114,0.00000720,-0.00000361,-0.00000263,-0.00009362,0.00006
 189,-0.00004208,0.00000439,-0.00001903,-0.00000061,0.00001218,-0.00000
 939,0.00001079,0.00002921,-0.00000287,-0.00000477,0.00329485,-0.033319
 18,-0.00991872,0.00007352,0.00143343,0.00325456,0.00536478,-0.09539149
 ,-0.08965295,0.00070826,0.00634639,0.00163191,-0.00276924,0.01412980,0
 .00644502,-0.00461276,0.10923917,0.09724893\\0.00000892,-0.00000346,-0
 .00000895,0.00000724,0.00000783,0.00000416,-0.00000668,-0.00000019,-0.
 00000982,-0.00000612,-0.00000501,-0.00000156,0.00000084,-0.00000309,0.
 00000055,-0.00000689,-0.00000113,0.00000306,0.00001352,0.00000108,-0.0
 0001796,-0.00000333,0.00000212,0.00000574,-0.00000304,-0.00000381,0.00
 000189,0.00000344,0.00000793,0.00000711,0.00000214,0.00000042,0.000004
 99,0.00000571,0.00000253,0.00000021,0.00000145,0.00000429,-0.00000650,
 -0.00000496,0.00000360,-0.00000649,-0.00000560,-0.00000031,0.00000053,
 0.00000363,-0.00000043,0.00000145,0.00000888,0.00000592,-0.00000376,0.
 00000138,0.00000955,-0.00000777,0.00001395,0.00000438,0.00000646,0.000
 01340,0.00000377,0.00000250,0.00001484,0.00000569,-0.00000251,0.000014
 21,0.00000146,0.00000425,0.00000342,-0.00000324,-0.00000102,-0.0000052
 4,-0.00000072,-0.00000217,-0.00000227,0.00000363,-0.00000535,0.0000005
 4,0.00000057,-0.00000043,0.00000040,-0.00000869,0.00000883,-0.00000705
 ,-0.00000483,0.00000716,-0.00000181,-0.00000521,0.00000904,-0.00000275
 ,-0.00000699,0.00000947,-0.00001025,0.00000741,-0.00000747,-0.00000209
 ,-0.00000754,0.00000335,-0.00000882,-0.00000721,0.00000032,-0.00001351
 ,-0.00000442,0.00000212,-0.00001555,-0.00000149,-0.00000327,-0.0000119
 4,-0.00000443,0.00000183\\\@


 LIFE IS A CONTINUAL STRUGGLE AGAINST THE TENDENCY TO PRODUCE ENTROPY.
 Job cpu time:       0 days  6 hours 44 minutes 47.0 seconds.
 File lengths (MBytes):  RWF=    766 Int=      0 D2E=      0 Chk=     19 Scr=      1
 Normal termination of Gaussian 09 at Tue Jan 10 10:07:41 2017.
