 Entering Gaussian System, Link 0=g09
 Initial command:
 /share/apps//g09/l1.exe "/scratch/Gau-48855.inp" -scrdir="/scratch/"
 Entering Link 1 = /share/apps//g09/l1.exe PID=     48856.
  
 Copyright (c) 1988,1990,1992,1993,1995,1998,2003,2009,2013,
            Gaussian, Inc.  All Rights Reserved.
  
 This is part of the Gaussian(R) 09 program.  It is based on
 the Gaussian(R) 03 system (copyright 2003, Gaussian, Inc.),
 the Gaussian(R) 98 system (copyright 1998, Gaussian, Inc.),
 the Gaussian(R) 94 system (copyright 1995, Gaussian, Inc.),
 the Gaussian 92(TM) system (copyright 1992, Gaussian, Inc.),
 the Gaussian 90(TM) system (copyright 1990, Gaussian, Inc.),
 the Gaussian 88(TM) system (copyright 1988, Gaussian, Inc.),
 the Gaussian 86(TM) system (copyright 1986, Carnegie Mellon
 University), and the Gaussian 82(TM) system (copyright 1983,
 Carnegie Mellon University). Gaussian is a federally registered
 trademark of Gaussian, Inc.
  
 This software contains proprietary and confidential information,
 including trade secrets, belonging to Gaussian, Inc.
  
 This software is provided under written license and may be
 used, copied, transmitted, or stored only in accord with that
 written license.
  
 The following legend is applicable only to US Government
 contracts under FAR:
  
                    RESTRICTED RIGHTS LEGEND
  
 Use, reproduction and disclosure by the US Government is
 subject to restrictions as set forth in subparagraphs (a)
 and (c) of the Commercial Computer Software - Restricted
 Rights clause in FAR 52.227-19.
  
 Gaussian, Inc.
 340 Quinnipiac St., Bldg. 40, Wallingford CT 06492
  
  
 ---------------------------------------------------------------
 Warning -- This program may not be used in any manner that
 competes with the business of Gaussian, Inc. or will provide
 assistance to any competitor of Gaussian, Inc.  The licensee
 of this program is prohibited from giving any competitor of
 Gaussian, Inc. access to this program.  By using this program,
 the user acknowledges that Gaussian, Inc. is engaged in the
 business of creating and licensing software in the field of
 computational chemistry and represents and warrants to the
 licensee that it is not a competitor of Gaussian, Inc. and that
 it will not use this program in any manner prohibited above.
 ---------------------------------------------------------------
  

 Cite this work as:
 Gaussian 09, Revision D.01,
 M. J. Frisch, G. W. Trucks, H. B. Schlegel, G. E. Scuseria, 
 M. A. Robb, J. R. Cheeseman, G. Scalmani, V. Barone, B. Mennucci, 
 G. A. Petersson, H. Nakatsuji, M. Caricato, X. Li, H. P. Hratchian, 
 A. F. Izmaylov, J. Bloino, G. Zheng, J. L. Sonnenberg, M. Hada, 
 M. Ehara, K. Toyota, R. Fukuda, J. Hasegawa, M. Ishida, T. Nakajima, 
 Y. Honda, O. Kitao, H. Nakai, T. Vreven, J. A. Montgomery, Jr., 
 J. E. Peralta, F. Ogliaro, M. Bearpark, J. J. Heyd, E. Brothers, 
 K. N. Kudin, V. N. Staroverov, T. Keith, R. Kobayashi, J. Normand, 
 K. Raghavachari, A. Rendell, J. C. Burant, S. S. Iyengar, J. Tomasi, 
 M. Cossi, N. Rega, J. M. Millam, M. Klene, J. E. Knox, J. B. Cross, 
 V. Bakken, C. Adamo, J. Jaramillo, R. Gomperts, R. E. Stratmann, 
 O. Yazyev, A. J. Austin, R. Cammi, C. Pomelli, J. W. Ochterski, 
 R. L. Martin, K. Morokuma, V. G. Zakrzewski, G. A. Voth, 
 P. Salvador, J. J. Dannenberg, S. Dapprich, A. D. Daniels, 
 O. Farkas, J. B. Foresman, J. V. Ortiz, J. Cioslowski, 
 and D. J. Fox, Gaussian, Inc., Wallingford CT, 2013.
 
 ******************************************
 Gaussian 09:  EM64L-G09RevD.01 24-Apr-2013
                 8-Jan-2017 
 ******************************************
 %nproc=20
 Will use up to   20 processors via shared memory.
 %mem=100GB
 %chk=Ac-4_cGalMe.chk
 -------------------------------------------------------------------
 #P PBE1PBE/6-311+G(d,p) opt optcyc=999 freq EmpiricalDispersion=GD3
 -------------------------------------------------------------------
 1/6=999,14=-1,18=20,19=15,26=3,38=1/1,3;
 2/9=110,12=2,17=6,18=5,40=1/2;
 3/5=4,6=6,7=111,11=2,16=1,25=1,30=1,71=1,74=-13,124=31/1,2,3;
 4//1;
 5/5=2,38=5/2;
 6/7=2,8=2,9=2,10=2,28=1/1;
 7//1,2,3,16;
 1/6=999,14=-1,18=20,19=15,26=3/3(2);
 2/9=110/2;
 99//99;
 2/9=110/2;
 3/5=4,6=6,7=111,11=2,16=1,25=1,30=1,71=1,74=-13,124=31/1,2,3;
 4/5=5,16=3,69=1/1;
 5/5=2,38=5/2;
 7//1,2,3,16;
 1/6=999,14=-1,18=20,19=15,26=3/3(-5);
 2/9=110/2;
 6/7=2,8=2,9=2,10=2,19=2,28=1/1;
 99/9=1/99;
 Leave Link    1 at Sun Jan  8 02:55:16 2017, MaxMem= 13421772800 cpu:         1.7
 (Enter /share/apps//g09/l101.exe)
 -------
 disacch
 -------
 Symbolic Z-matrix:
 Charge =  1 Multiplicity = 1
 C                    -2.45121   0.42316   0.35316 
 C                    -0.95424   0.13222   0.43152 
 C                    -0.08089   1.36976   0.51666 
 C                     1.42033   1.00723   0.65475 
 C                     1.74508  -0.26298  -0.16271 
 C                     0.6463   -0.48812  -1.21132 
 O                    -0.61168  -0.64557  -0.75888 
 O                     2.28387   2.03399   0.21597 
 O                    -0.27873   2.23928  -0.68216 
 O                    -2.75974   1.17912   1.50485 
 H                    -2.99685  -0.53826   0.32704 
 H                    -2.69078   0.97308  -0.57866 
 H                    -0.74547  -0.48421   1.3219 
 H                    -0.44366   2.01046   1.32872 
 H                     1.58969   0.75528   1.71869 
 H                     2.70999  -0.10798  -0.67762 
 H                     0.85276  -1.24882  -1.97098 
 O                     1.78657  -1.35029   0.7367 
 C                    -4.16498   1.42732   1.64147 
 H                    -4.28899   2.01947   2.55418 
 H                    -4.55382   1.99584   0.77969 
 H                    -4.72562   0.48275   1.73846 
 C                     2.4348   -2.53166   0.22825 
 H                     1.82166  -3.04737  -0.52741 
 H                     3.4213   -2.28328  -0.19451 
 H                     2.56452  -3.19491   1.08941 
 C                     2.35232   3.16677   1.10172 
 H                     1.41836   3.75199   1.0944 
 H                     2.57874   2.8432    2.12993 
 H                     3.17083   3.79197   0.73043 
 C                     0.27334   1.953    -1.82631 
 O                     0.74213   0.81345  -2.17248 
 C                     0.33236   3.05883  -2.81202 
 H                     1.2758    3.6011   -2.64148 
 H                    -0.49399   3.75878  -2.65009 
 H                     0.33541   2.6679   -3.83348 
 
 NAtoms=     36 NQM=       36 NQMF=       0 NMMI=      0 NMMIF=      0
                NMic=       0 NMicF=      0.
                    Isotopes and Nuclear Properties:
 (Nuclear quadrupole moments (NQMom) in fm**2, nuclear magnetic moments (NMagM)
  in nuclear magnetons)

  Atom         1           2           3           4           5           6           7           8           9          10
 IAtWgt=          12          12          12          12          12          12          16          16          16          16
 AtmWgt=  12.0000000  12.0000000  12.0000000  12.0000000  12.0000000  12.0000000  15.9949146  15.9949146  15.9949146  15.9949146
 NucSpn=           0           0           0           0           0           0           0           0           0           0
 AtZEff=   0.0000000   0.0000000   0.0000000   0.0000000   0.0000000   0.0000000   0.0000000   0.0000000   0.0000000   0.0000000
 NQMom=    0.0000000   0.0000000   0.0000000   0.0000000   0.0000000   0.0000000   0.0000000   0.0000000   0.0000000   0.0000000
 NMagM=    0.0000000   0.0000000   0.0000000   0.0000000   0.0000000   0.0000000   0.0000000   0.0000000   0.0000000   0.0000000
 AtZNuc=   6.0000000   6.0000000   6.0000000   6.0000000   6.0000000   6.0000000   8.0000000   8.0000000   8.0000000   8.0000000

  Atom        11          12          13          14          15          16          17          18          19          20
 IAtWgt=           1           1           1           1           1           1           1          16          12           1
 AtmWgt=   1.0078250   1.0078250   1.0078250   1.0078250   1.0078250   1.0078250   1.0078250  15.9949146  12.0000000   1.0078250
 NucSpn=           1           1           1           1           1           1           1           0           0           1
 AtZEff=   0.0000000   0.0000000   0.0000000   0.0000000   0.0000000   0.0000000   0.0000000   0.0000000   0.0000000   0.0000000
 NQMom=    0.0000000   0.0000000   0.0000000   0.0000000   0.0000000   0.0000000   0.0000000   0.0000000   0.0000000   0.0000000
 NMagM=    2.7928460   2.7928460   2.7928460   2.7928460   2.7928460   2.7928460   2.7928460   0.0000000   0.0000000   2.7928460
 AtZNuc=   1.0000000   1.0000000   1.0000000   1.0000000   1.0000000   1.0000000   1.0000000   8.0000000   6.0000000   1.0000000

  Atom        21          22          23          24          25          26          27          28          29          30
 IAtWgt=           1           1          12           1           1           1          12           1           1           1
 AtmWgt=   1.0078250   1.0078250  12.0000000   1.0078250   1.0078250   1.0078250  12.0000000   1.0078250   1.0078250   1.0078250
 NucSpn=           1           1           0           1           1           1           0           1           1           1
 AtZEff=   0.0000000   0.0000000   0.0000000   0.0000000   0.0000000   0.0000000   0.0000000   0.0000000   0.0000000   0.0000000
 NQMom=    0.0000000   0.0000000   0.0000000   0.0000000   0.0000000   0.0000000   0.0000000   0.0000000   0.0000000   0.0000000
 NMagM=    2.7928460   2.7928460   0.0000000   2.7928460   2.7928460   2.7928460   0.0000000   2.7928460   2.7928460   2.7928460
 AtZNuc=   1.0000000   1.0000000   6.0000000   1.0000000   1.0000000   1.0000000   6.0000000   1.0000000   1.0000000   1.0000000

  Atom        31          32          33          34          35          36
 IAtWgt=          12          16          12           1           1           1
 AtmWgt=  12.0000000  15.9949146  12.0000000   1.0078250   1.0078250   1.0078250
 NucSpn=           0           0           0           1           1           1
 AtZEff=   0.0000000   0.0000000   0.0000000   0.0000000   0.0000000   0.0000000
 NQMom=    0.0000000   0.0000000   0.0000000   0.0000000   0.0000000   0.0000000
 NMagM=    0.0000000   0.0000000   0.0000000   2.7928460   2.7928460   2.7928460
 AtZNuc=   6.0000000   8.0000000   6.0000000   1.0000000   1.0000000   1.0000000
 Leave Link  101 at Sun Jan  8 02:55:16 2017, MaxMem= 13421772800 cpu:         4.7
 (Enter /share/apps//g09/l103.exe)

 GradGradGradGradGradGradGradGradGradGradGradGradGradGradGradGradGradGrad
 Berny optimization.
 Initialization pass.
                           ----------------------------
                           !    Initial Parameters    !
                           ! (Angstroms and Degrees)  !
 --------------------------                            --------------------------
 ! Name  Definition              Value          Derivative Info.                !
 --------------------------------------------------------------------------------
 ! R1    R(1,2)                  1.527          estimate D2E/DX2                !
 ! R2    R(1,10)                 1.4118         estimate D2E/DX2                !
 ! R3    R(1,11)                 1.1058         estimate D2E/DX2                !
 ! R4    R(1,12)                 1.1082         estimate D2E/DX2                !
 ! R5    R(2,3)                  1.5171         estimate D2E/DX2                !
 ! R6    R(2,7)                  1.4627         estimate D2E/DX2                !
 ! R7    R(2,13)                 1.1029         estimate D2E/DX2                !
 ! R8    R(3,4)                  1.5505         estimate D2E/DX2                !
 ! R9    R(3,9)                  1.4941         estimate D2E/DX2                !
 ! R10   R(3,14)                 1.0961         estimate D2E/DX2                !
 ! R11   R(4,5)                  1.545          estimate D2E/DX2                !
 ! R12   R(4,8)                  1.4115         estimate D2E/DX2                !
 ! R13   R(4,15)                 1.1064         estimate D2E/DX2                !
 ! R14   R(5,6)                  1.5354         estimate D2E/DX2                !
 ! R15   R(5,16)                 1.1046         estimate D2E/DX2                !
 ! R16   R(5,18)                 1.4117         estimate D2E/DX2                !
 ! R17   R(6,7)                  1.3461         estimate D2E/DX2                !
 ! R18   R(6,17)                 1.0947         estimate D2E/DX2                !
 ! R19   R(6,32)                 1.6208         estimate D2E/DX2                !
 ! R20   R(8,27)                 1.4396         estimate D2E/DX2                !
 ! R21   R(9,31)                 1.3022         estimate D2E/DX2                !
 ! R22   R(10,19)                1.4335         estimate D2E/DX2                !
 ! R23   R(18,23)                1.4403         estimate D2E/DX2                !
 ! R24   R(19,20)                1.095          estimate D2E/DX2                !
 ! R25   R(19,21)                1.1032         estimate D2E/DX2                !
 ! R26   R(19,22)                1.1027         estimate D2E/DX2                !
 ! R27   R(23,24)                1.1013         estimate D2E/DX2                !
 ! R28   R(23,25)                1.1016         estimate D2E/DX2                !
 ! R29   R(23,26)                1.0947         estimate D2E/DX2                !
 ! R30   R(27,28)                1.1022         estimate D2E/DX2                !
 ! R31   R(27,29)                1.1014         estimate D2E/DX2                !
 ! R32   R(27,30)                1.0948         estimate D2E/DX2                !
 ! R33   R(31,32)                1.2799         estimate D2E/DX2                !
 ! R34   R(31,33)                1.4826         estimate D2E/DX2                !
 ! R35   R(33,34)                1.1015         estimate D2E/DX2                !
 ! R36   R(33,35)                1.095          estimate D2E/DX2                !
 ! R37   R(33,36)                1.0937         estimate D2E/DX2                !
 ! A1    A(2,1,10)             105.9267         estimate D2E/DX2                !
 ! A2    A(2,1,11)             108.6205         estimate D2E/DX2                !
 ! A3    A(2,1,12)             110.4645         estimate D2E/DX2                !
 ! A4    A(10,1,11)            112.1481         estimate D2E/DX2                !
 ! A5    A(10,1,12)            111.8999         estimate D2E/DX2                !
 ! A6    A(11,1,12)            107.753          estimate D2E/DX2                !
 ! A7    A(1,2,3)              114.3192         estimate D2E/DX2                !
 ! A8    A(1,2,7)              106.8073         estimate D2E/DX2                !
 ! A9    A(1,2,13)             109.4811         estimate D2E/DX2                !
 ! A10   A(3,2,7)              110.1594         estimate D2E/DX2                !
 ! A11   A(3,2,13)             107.5573         estimate D2E/DX2                !
 ! A12   A(7,2,13)             108.3908         estimate D2E/DX2                !
 ! A13   A(2,3,4)              111.8169         estimate D2E/DX2                !
 ! A14   A(2,3,9)              110.7001         estimate D2E/DX2                !
 ! A15   A(2,3,14)             109.1388         estimate D2E/DX2                !
 ! A16   A(4,3,9)              109.6168         estimate D2E/DX2                !
 ! A17   A(4,3,14)             113.0235         estimate D2E/DX2                !
 ! A18   A(9,3,14)             102.1478         estimate D2E/DX2                !
 ! A19   A(3,4,5)              110.402          estimate D2E/DX2                !
 ! A20   A(3,4,8)              113.2381         estimate D2E/DX2                !
 ! A21   A(3,4,15)             106.6837         estimate D2E/DX2                !
 ! A22   A(5,4,8)              107.7557         estimate D2E/DX2                !
 ! A23   A(5,4,15)             106.8217         estimate D2E/DX2                !
 ! A24   A(8,4,15)             111.7723         estimate D2E/DX2                !
 ! A25   A(4,5,6)              109.3578         estimate D2E/DX2                !
 ! A26   A(4,5,16)             108.3531         estimate D2E/DX2                !
 ! A27   A(4,5,18)             107.5958         estimate D2E/DX2                !
 ! A28   A(6,5,16)             109.1067         estimate D2E/DX2                !
 ! A29   A(6,5,18)             110.0721         estimate D2E/DX2                !
 ! A30   A(16,5,18)            112.2955         estimate D2E/DX2                !
 ! A31   A(5,6,7)              117.1531         estimate D2E/DX2                !
 ! A32   A(5,6,17)             116.1578         estimate D2E/DX2                !
 ! A33   A(5,6,32)             104.1776         estimate D2E/DX2                !
 ! A34   A(7,6,17)             109.1604         estimate D2E/DX2                !
 ! A35   A(7,6,32)             110.3953         estimate D2E/DX2                !
 ! A36   A(17,6,32)             97.7792         estimate D2E/DX2                !
 ! A37   A(2,7,6)              115.4815         estimate D2E/DX2                !
 ! A38   A(4,8,27)             114.2175         estimate D2E/DX2                !
 ! A39   A(3,9,31)             121.3917         estimate D2E/DX2                !
 ! A40   A(1,10,19)            112.6247         estimate D2E/DX2                !
 ! A41   A(5,18,23)            114.8393         estimate D2E/DX2                !
 ! A42   A(10,19,20)           106.504          estimate D2E/DX2                !
 ! A43   A(10,19,21)           111.1178         estimate D2E/DX2                !
 ! A44   A(10,19,22)           111.0062         estimate D2E/DX2                !
 ! A45   A(20,19,21)           109.4213         estimate D2E/DX2                !
 ! A46   A(20,19,22)           109.4103         estimate D2E/DX2                !
 ! A47   A(21,19,22)           109.3259         estimate D2E/DX2                !
 ! A48   A(18,23,24)           112.0703         estimate D2E/DX2                !
 ! A49   A(18,23,25)           110.7063         estimate D2E/DX2                !
 ! A50   A(18,23,26)           105.8185         estimate D2E/DX2                !
 ! A51   A(24,23,25)           109.9263         estimate D2E/DX2                !
 ! A52   A(24,23,26)           108.7856         estimate D2E/DX2                !
 ! A53   A(25,23,26)           109.4135         estimate D2E/DX2                !
 ! A54   A(8,27,28)            111.9269         estimate D2E/DX2                !
 ! A55   A(8,27,29)            110.6699         estimate D2E/DX2                !
 ! A56   A(8,27,30)            106.0352         estimate D2E/DX2                !
 ! A57   A(28,27,29)           109.6559         estimate D2E/DX2                !
 ! A58   A(28,27,30)           109.15           estimate D2E/DX2                !
 ! A59   A(29,27,30)           109.3081         estimate D2E/DX2                !
 ! A60   A(9,31,32)            126.0603         estimate D2E/DX2                !
 ! A61   A(9,31,33)            115.9165         estimate D2E/DX2                !
 ! A62   A(32,31,33)           118.0143         estimate D2E/DX2                !
 ! A63   A(6,32,31)            122.203          estimate D2E/DX2                !
 ! A64   A(31,33,34)           107.3599         estimate D2E/DX2                !
 ! A65   A(31,33,35)           110.3914         estimate D2E/DX2                !
 ! A66   A(31,33,36)           110.7598         estimate D2E/DX2                !
 ! A67   A(34,33,35)           107.9866         estimate D2E/DX2                !
 ! A68   A(34,33,36)           108.5531         estimate D2E/DX2                !
 ! A69   A(35,33,36)           111.6354         estimate D2E/DX2                !
 ! D1    D(10,1,2,3)           -57.5805         estimate D2E/DX2                !
 ! D2    D(10,1,2,7)          -179.6923         estimate D2E/DX2                !
 ! D3    D(10,1,2,13)           63.15           estimate D2E/DX2                !
 ! D4    D(11,1,2,3)          -178.2348         estimate D2E/DX2                !
 ! D5    D(11,1,2,7)            59.6534         estimate D2E/DX2                !
 ! D6    D(11,1,2,13)          -57.5042         estimate D2E/DX2                !
 ! D7    D(12,1,2,3)            63.7849         estimate D2E/DX2                !
 ! D8    D(12,1,2,7)           -58.327          estimate D2E/DX2                !
 ! D9    D(12,1,2,13)         -175.4846         estimate D2E/DX2                !
 ! D10   D(2,1,10,19)         -174.5077         estimate D2E/DX2                !
 ! D11   D(11,1,10,19)         -56.1712         estimate D2E/DX2                !
 ! D12   D(12,1,10,19)          65.0563         estimate D2E/DX2                !
 ! D13   D(1,2,3,4)            177.5568         estimate D2E/DX2                !
 ! D14   D(1,2,3,9)            -59.9056         estimate D2E/DX2                !
 ! D15   D(1,2,3,14)            51.764          estimate D2E/DX2                !
 ! D16   D(7,2,3,4)            -62.183          estimate D2E/DX2                !
 ! D17   D(7,2,3,9)             60.3547         estimate D2E/DX2                !
 ! D18   D(7,2,3,14)           172.0243         estimate D2E/DX2                !
 ! D19   D(13,2,3,4)            55.7647         estimate D2E/DX2                !
 ! D20   D(13,2,3,9)           178.3024         estimate D2E/DX2                !
 ! D21   D(13,2,3,14)          -70.028          estimate D2E/DX2                !
 ! D22   D(1,2,7,6)            150.5129         estimate D2E/DX2                !
 ! D23   D(3,2,7,6)             25.821          estimate D2E/DX2                !
 ! D24   D(13,2,7,6)           -91.6115         estimate D2E/DX2                !
 ! D25   D(2,3,4,5)             35.4437         estimate D2E/DX2                !
 ! D26   D(2,3,4,8)            156.361          estimate D2E/DX2                !
 ! D27   D(2,3,4,15)           -80.2654         estimate D2E/DX2                !
 ! D28   D(9,3,4,5)            -87.7099         estimate D2E/DX2                !
 ! D29   D(9,3,4,8)             33.2074         estimate D2E/DX2                !
 ! D30   D(9,3,4,15)           156.581          estimate D2E/DX2                !
 ! D31   D(14,3,4,5)           159.0742         estimate D2E/DX2                !
 ! D32   D(14,3,4,8)           -80.0085         estimate D2E/DX2                !
 ! D33   D(14,3,4,15)           43.3651         estimate D2E/DX2                !
 ! D34   D(2,3,9,31)           -77.803          estimate D2E/DX2                !
 ! D35   D(4,3,9,31)            46.0075         estimate D2E/DX2                !
 ! D36   D(14,3,9,31)          166.1027         estimate D2E/DX2                !
 ! D37   D(3,4,5,6)             19.2308         estimate D2E/DX2                !
 ! D38   D(3,4,5,16)           138.0526         estimate D2E/DX2                !
 ! D39   D(3,4,5,18)          -100.3099         estimate D2E/DX2                !
 ! D40   D(8,4,5,6)           -104.902          estimate D2E/DX2                !
 ! D41   D(8,4,5,16)            13.9197         estimate D2E/DX2                !
 ! D42   D(8,4,5,18)           135.5573         estimate D2E/DX2                !
 ! D43   D(15,4,5,6)           134.8535         estimate D2E/DX2                !
 ! D44   D(15,4,5,16)         -106.3247         estimate D2E/DX2                !
 ! D45   D(15,4,5,18)           15.3128         estimate D2E/DX2                !
 ! D46   D(3,4,8,27)            73.0011         estimate D2E/DX2                !
 ! D47   D(5,4,8,27)          -164.5971         estimate D2E/DX2                !
 ! D48   D(15,4,8,27)          -47.5254         estimate D2E/DX2                !
 ! D49   D(4,5,6,7)            -59.2384         estimate D2E/DX2                !
 ! D50   D(4,5,6,17)           169.2431         estimate D2E/DX2                !
 ! D51   D(4,5,6,32)            63.006          estimate D2E/DX2                !
 ! D52   D(16,5,6,7)          -177.5913         estimate D2E/DX2                !
 ! D53   D(16,5,6,17)           50.8902         estimate D2E/DX2                !
 ! D54   D(16,5,6,32)          -55.3468         estimate D2E/DX2                !
 ! D55   D(18,5,6,7)            58.7639         estimate D2E/DX2                !
 ! D56   D(18,5,6,17)          -72.7546         estimate D2E/DX2                !
 ! D57   D(18,5,6,32)         -178.9917         estimate D2E/DX2                !
 ! D58   D(4,5,18,23)         -163.3443         estimate D2E/DX2                !
 ! D59   D(6,5,18,23)           77.571          estimate D2E/DX2                !
 ! D60   D(16,5,18,23)         -44.197          estimate D2E/DX2                !
 ! D61   D(5,6,7,2)             34.4292         estimate D2E/DX2                !
 ! D62   D(17,6,7,2)           169.0745         estimate D2E/DX2                !
 ! D63   D(32,6,7,2)           -84.542          estimate D2E/DX2                !
 ! D64   D(5,6,32,31)          -77.0622         estimate D2E/DX2                !
 ! D65   D(7,6,32,31)           49.5299         estimate D2E/DX2                !
 ! D66   D(17,6,32,31)         163.3716         estimate D2E/DX2                !
 ! D67   D(4,8,27,28)          -70.4369         estimate D2E/DX2                !
 ! D68   D(4,8,27,29)           52.2069         estimate D2E/DX2                !
 ! D69   D(4,8,27,30)          170.6401         estimate D2E/DX2                !
 ! D70   D(3,9,31,32)           18.0139         estimate D2E/DX2                !
 ! D71   D(3,9,31,33)         -163.1003         estimate D2E/DX2                !
 ! D72   D(1,10,19,20)        -179.6771         estimate D2E/DX2                !
 ! D73   D(1,10,19,21)         -60.5859         estimate D2E/DX2                !
 ! D74   D(1,10,19,22)          61.3067         estimate D2E/DX2                !
 ! D75   D(5,18,23,24)         -72.6575         estimate D2E/DX2                !
 ! D76   D(5,18,23,25)          50.4638         estimate D2E/DX2                !
 ! D77   D(5,18,23,26)         168.9154         estimate D2E/DX2                !
 ! D78   D(9,31,32,6)            2.7648         estimate D2E/DX2                !
 ! D79   D(33,31,32,6)        -176.1            estimate D2E/DX2                !
 ! D80   D(9,31,33,34)          89.2289         estimate D2E/DX2                !
 ! D81   D(9,31,33,35)         -28.2465         estimate D2E/DX2                !
 ! D82   D(9,31,33,36)        -152.4107         estimate D2E/DX2                !
 ! D83   D(32,31,33,34)        -91.7914         estimate D2E/DX2                !
 ! D84   D(32,31,33,35)        150.7332         estimate D2E/DX2                !
 ! D85   D(32,31,33,36)         26.569          estimate D2E/DX2                !
 --------------------------------------------------------------------------------
 Trust Radius=3.00D-01 FncErr=1.00D-07 GrdErr=1.00D-06
 Number of steps in this run=    216 maximum allowed number of steps=    216.
 GradGradGradGradGradGradGradGradGradGradGradGradGradGradGradGradGradGrad

 Leave Link  103 at Sun Jan  8 02:55:17 2017, MaxMem= 13421772800 cpu:         0.2
 (Enter /share/apps//g09/l202.exe)
                          Input orientation:                          
 ---------------------------------------------------------------------
 Center     Atomic      Atomic             Coordinates (Angstroms)
 Number     Number       Type             X           Y           Z
 ---------------------------------------------------------------------
      1          6           0       -2.451210    0.423160    0.353160
      2          6           0       -0.954240    0.132220    0.431520
      3          6           0       -0.080890    1.369760    0.516660
      4          6           0        1.420330    1.007230    0.654750
      5          6           0        1.745080   -0.262980   -0.162710
      6          6           0        0.646300   -0.488120   -1.211320
      7          8           0       -0.611680   -0.645570   -0.758880
      8          8           0        2.283870    2.033990    0.215970
      9          8           0       -0.278730    2.239280   -0.682160
     10          8           0       -2.759740    1.179120    1.504850
     11          1           0       -2.996850   -0.538260    0.327040
     12          1           0       -2.690780    0.973080   -0.578660
     13          1           0       -0.745470   -0.484210    1.321900
     14          1           0       -0.443660    2.010460    1.328720
     15          1           0        1.589690    0.755280    1.718690
     16          1           0        2.709990   -0.107980   -0.677620
     17          1           0        0.852760   -1.248820   -1.970980
     18          8           0        1.786570   -1.350290    0.736700
     19          6           0       -4.164980    1.427320    1.641470
     20          1           0       -4.288990    2.019470    2.554180
     21          1           0       -4.553820    1.995840    0.779690
     22          1           0       -4.725620    0.482750    1.738460
     23          6           0        2.434800   -2.531660    0.228250
     24          1           0        1.821660   -3.047370   -0.527410
     25          1           0        3.421300   -2.283280   -0.194510
     26          1           0        2.564520   -3.194910    1.089410
     27          6           0        2.352320    3.166770    1.101720
     28          1           0        1.418360    3.751990    1.094400
     29          1           0        2.578740    2.843200    2.129930
     30          1           0        3.170830    3.791970    0.730430
     31          6           0        0.273340    1.953000   -1.826310
     32          8           0        0.742130    0.813450   -2.172480
     33          6           0        0.332360    3.058830   -2.812020
     34          1           0        1.275800    3.601100   -2.641480
     35          1           0       -0.493990    3.758780   -2.650090
     36          1           0        0.335410    2.667900   -3.833480
 ---------------------------------------------------------------------
                    Distance matrix (angstroms):
                    1          2          3          4          5
     1  C    0.000000
     2  C    1.526992   0.000000
     3  C    2.557577   1.517068   0.000000
     4  C    3.926947   2.540484   1.550535   0.000000
     5  C    4.283195   2.792064   2.541958   1.545036   0.000000
     6  C    3.587840   2.376020   2.639401   2.513446   1.535444
     7  O    2.400560   1.462654   2.443419   2.976434   2.460917
     8  O    5.003457   3.761455   2.474612   1.411547   2.389511
     9  O    3.014938   2.477155   1.494113   2.488389   3.259899
    10  O    1.411756   2.346885   2.861660   4.269098   5.015358
    11  H    1.105773   2.152374   3.489888   4.691206   4.775095
    12  H    1.108194   2.177861   2.858077   4.292283   4.623604
    13  H    2.161325   1.102881   2.127741   2.712964   2.907894
    14  H    2.738886   2.143232   1.096148   2.221523   3.490484
    15  H    4.278300   2.918320   2.147859   1.106404   2.144916
    16  H    5.289858   3.835944   3.376245   2.163822   1.104631
    17  H    4.371883   3.308251   3.730552   3.508042   2.244539
    18  O    4.609881   3.130976   3.306735   2.387205   1.411702
    19  C    2.367507   3.667440   4.236544   5.687335   6.406324
    20  H    3.281788   4.380406   4.720351   6.101541   7.000076
    21  H    2.660116   4.068326   4.524187   6.056685   6.757701
    22  H    2.663747   4.006778   4.883963   6.262764   6.785316
    23  C    5.711362   4.315457   4.651124   3.706048   2.403221
    24  H    5.574711   4.328390   4.921465   4.242446   2.809217
    25  H    6.489309   5.037053   5.110362   3.943676   2.625326
    26  H    6.228165   4.887155   5.306830   4.376766   3.291732
    27  C    5.582261   4.537731   3.080917   2.394160   3.705497
    28  H    5.157918   4.378513   2.873422   2.779749   4.219841
    29  H    5.857807   4.766126   3.441990   2.624663   3.949625
    30  H    6.564948   5.522619   4.060355   3.290099   4.390112
    31  C    3.809681   3.149601   2.440319   2.892356   3.137539
    32  O    4.090062   3.181597   2.866761   2.913887   2.490740
    33  C    4.971256   4.554222   3.755508   4.172677   4.477616
    34  H    5.740886   5.142911   4.097967   4.196925   4.614720
    35  H    4.896589   4.781222   3.988280   4.707188   5.232117
    36  H    5.507455   5.126704   4.558749   4.907044   4.904261
                    6          7          8          9         10
     6  C    0.000000
     7  O    1.346108   0.000000
     8  O    3.328638   4.063814   0.000000
     9  O    2.928208   2.905013   2.723178   0.000000
    10  O    4.664588   3.614987   5.275416   3.473091   0.000000
    11  H    3.954947   2.622932   5.874931   4.015145   2.095913
    12  H    3.697495   2.641054   5.148214   2.726162   2.094808
    13  H    2.890371   2.091311   4.091615   3.413429   2.618668
    14  H    3.725952   3.382425   2.945876   2.030566   2.467058
    15  H    3.319787   3.598161   2.091687   3.384868   4.375261
    16  H    2.165216   3.365873   2.359686   3.800276   6.028080
    17  H    1.094702   1.994413   4.196149   3.886923   5.570139
    18  O    2.416265   2.912901   3.460032   4.377630   5.258983
    19  C    5.912338   4.762824   6.632327   4.600160   1.433516
    20  H    6.695079   5.621513   6.976383   5.157945   2.036145
    21  H    6.097165   4.988458   6.860994   4.524673   2.100384
    22  H    6.204943   4.943108   7.338751   5.359070   2.098616
    23  C    3.073622   3.716558   4.568161   5.563628   6.510211
    24  H    2.898097   3.426859   5.156207   5.690716   6.556106
    25  H    3.457908   4.389252   4.483421   5.863580   7.285691
    26  H    4.037281   4.472534   5.308772   6.383804   6.903077
    27  C    4.649611   5.175042   1.439593   3.311327   5.499675
    28  H    4.887837   5.185966   2.114774   2.885233   4.923886
    29  H    5.098624   5.540354   2.098812   4.054344   5.626656
    30  H    5.335055   6.018072   2.035156   4.038034   6.526743
    31  C    2.544873   2.945375   2.867002   1.302235   4.571115
    32  O    1.620832   2.441271   3.093764   2.301347   5.091126
    33  C    3.904056   4.339260   3.745319   2.362498   5.632917
    34  H    4.377596   5.014077   3.411313   2.847815   6.272449
    35  H    4.626714   4.794666   4.348069   2.495589   5.389972
    36  H    4.114953   4.618358   4.538324   3.239089   6.347770
                   11         12         13         14         15
    11  H    0.000000
    12  H    1.788329   0.000000
    13  H    2.461987   3.085458   0.000000
    14  H    3.744077   3.124709   2.512870   0.000000
    15  H    4.964502   4.862888   2.673341   2.421170   0.000000
    16  H    5.810551   5.508793   4.009967   4.296359   2.782551
    17  H    4.539305   4.408182   3.739255   4.815769   4.262997
    18  O    4.869119   5.212953   2.739303   4.076647   2.331628
    19  C    2.637377   2.703438   3.930537   3.779694   5.794293
    20  H    3.629292   3.669318   4.510373   4.035889   6.070840
    21  H    3.008440   2.522315   4.576917   4.146693   6.337462
    22  H    2.454224   3.122506   4.117053   4.564753   6.321219
    23  C    5.786728   6.261460   3.937288   5.488845   3.706696
    24  H    5.499432   6.043903   4.071841   5.844531   4.422547
    25  H    6.671563   6.936063   4.785198   5.974475   4.030878
    26  H    6.210301   6.911785   4.284621   6.016834   4.117073
    27  C    6.552938   5.750549   4.793166   3.034153   2.603371
    28  H    6.203964   5.235122   4.762280   2.560264   3.065838
    29  H    6.765492   6.213023   4.772310   3.235784   2.346646
    30  H    7.546780   6.634631   5.828633   4.073852   3.563446
    31  C    4.640844   3.361976   4.109646   3.235986   3.966653
    32  O    4.696242   3.788221   4.013423   3.885529   3.982831
    33  C    5.820343   4.298561   5.550148   4.341315   5.235891
    34  H    6.648455   5.186084   6.040171   4.609682   5.216158
    35  H    5.795875   4.108142   5.817466   4.346273   5.696400
    36  H    6.220398   4.756479   6.138570   5.261890   6.004825
                   16         17         18         19         20
    16  H    0.000000
    17  H    2.534482   0.000000
    18  O    2.096745   2.865978   0.000000
    19  C    7.416235   6.737153   6.629832   0.000000
    20  H    7.997268   7.589228   7.181291   1.095016   0.000000
    21  H    7.701477   6.879325   7.169308   1.103212   1.794299
    22  H    7.840580   6.919292   6.839019   1.102695   1.793754
    23  C    2.602029   2.997523   1.440263   7.824820   8.445832
    24  H    3.074363   2.501488   2.116432   7.782464   8.515228
    25  H    2.339078   3.289886   2.099992   8.642397   9.247569
    26  H    3.559873   4.010408   2.032790   8.182662   8.735325
    27  C    3.744057   5.584586   4.566962   6.766995   6.894413
    28  H    4.439339   5.892755   5.128039   6.072649   6.140556
    29  H    4.075417   6.044923   4.489319   6.908044   6.929952
    30  H    4.171881   6.170950   5.325322   7.761164   7.881417
    31  C    3.391812   3.257040   4.446415   5.656900   6.325185
    32  O    2.637444   2.075042   3.773056   6.245221   7.007708
    33  C    4.498608   4.419730   5.843670   6.536166   7.157740
    34  H    4.435191   4.914291   6.015750   7.257484   7.775817
    35  H    5.395179   5.229817   6.540176   6.109776   6.671705
    36  H    4.827379   4.367751   6.256058   7.194972   7.912505
                   21         22         23         24         25
    21  H    0.000000
    22  H    1.799499   0.000000
    23  C    8.345247   7.914481   0.000000
    24  H    8.233421   7.775782   1.101326   0.000000
    25  H    9.102883   8.818140   1.101636   1.803747   0.000000
    26  H    8.815360   8.191007   1.094680   1.785418   1.792649
    27  C    7.012100   7.596488   5.765575   6.446022   5.703155
    28  H    6.232980   6.989366   6.423988   7.001729   6.488262
    29  H    7.308528   7.686264   5.703177   6.506415   5.691549
    30  H    7.930872   8.620962   6.386096   7.083713   6.150359
    31  C    5.485850   6.313384   5.385657   5.393342   5.524354
    32  O    6.177414   6.730609   4.451786   4.333310   4.547533
    33  C    6.156710   7.275041   6.702020   6.687536   6.703063
    34  H    6.947354   8.057607   6.869452   6.997815   6.724341
    35  H    5.599426   6.920870   7.512143   7.496111   7.606961
    36  H    6.755559   7.838075   6.923909   6.767817   6.875973
                   26         27         28         29         30
    26  H    0.000000
    27  C    6.365230   0.000000
    28  H    7.040819   1.102188   0.000000
    29  H    6.127125   1.101444   1.801306   0.000000
    30  H    7.022319   1.094847   1.790314   1.791462   0.000000
    31  C    6.344439   3.790614   3.616349   4.664671   4.279507
    32  O    5.479779   4.341798   4.445763   5.099388   4.816332
    33  C    7.701491   4.405593   4.113391   5.432825   4.598191
    34  H    7.859141   3.919067   3.741643   5.003840   3.872641
    35  H    8.467122   4.746371   4.204561   5.755740   4.985973
    36  H    7.973476   5.354717   5.160623   6.373815   5.489300
                   31         32         33         34         35
    31  C    0.000000
    32  O    1.279911   0.000000
    33  C    1.482554   2.370370   0.000000
    34  H    2.094197   2.876762   1.101463   0.000000
    35  H    2.127969   3.229717   1.094991   1.776821   0.000000
    36  H    2.131588   2.522564   1.093717   1.782150   1.810617
                   36
    36  H    0.000000
 Stoichiometry    C11H19O6(1+)
 Framework group  C1[X(C11H19O6)]
 Deg. of freedom   102
 Full point group                 C1      NOp   1
 Largest Abelian subgroup         C1      NOp   1
 Largest concise Abelian subgroup C1      NOp   1
                         Standard orientation:                         
 ---------------------------------------------------------------------
 Center     Atomic      Atomic             Coordinates (Angstroms)
 Number     Number       Type             X           Y           Z
 ---------------------------------------------------------------------
      1          6           0       -2.471702   -0.885914   -0.457829
      2          6           0       -1.002471   -0.973495   -0.051138
      3          6           0       -0.481848    0.251058    0.677503
      4          6           0        0.995043    0.076091    1.116065
      5          6           0        1.777352   -0.737713    0.061147
      6          6           0        1.017671   -0.705084   -1.272798
      7          8           0       -0.236560   -1.193845   -1.277589
      8          8           0        1.669942    1.301913    1.301370
      9          8           0       -0.610053    1.469074   -0.178286
     10          8           0       -3.191823   -0.666366    0.736441
     11          1           0       -2.759018   -1.833707   -0.949633
     12          1           0       -2.623304   -0.066603   -1.188473
     13          1           0       -0.855504   -1.842585    0.611756
     14          1           0       -1.152315    0.484362    1.512718
     15          1           0        0.981816   -0.529182    2.042132
     16          1           0        2.768083   -0.268657   -0.075406
     17          1           0        1.556532   -1.089786   -2.144582
     18          8           0        1.873556   -2.065248    0.531572
     19          6           0       -4.611133   -0.685587    0.536048
     20          1           0       -5.066021   -0.501181    1.514890
     21          1           0       -4.923820    0.103799   -0.168347
     22          1           0       -4.943484   -1.666053    0.156357
     23          6           0        2.874193   -2.868085   -0.123057
     24          1           0        2.578425   -3.143794   -1.147471
     25          1           0        3.843492   -2.344855   -0.140096
     26          1           0        2.963544   -3.780190    0.475612
     27          6           0        1.277341    2.018930    2.486351
     28          1           0        0.257534    2.428199    2.400850
     29          1           0        1.342680    1.369294    3.373415
     30          1           0        1.988398    2.845038    2.589474
     31          6           0        0.229756    1.711294   -1.143619
     32          8           0        1.015156    0.861130   -1.690008
     33          6           0        0.243334    3.102079   -1.656941
     34          1           0        0.973735    3.666939   -1.056384
     35          1           0       -0.738209    3.568249   -1.521792
     36          1           0        0.560467    3.125998   -2.703397
 ---------------------------------------------------------------------
 Rotational constants (GHZ):      0.5390811      0.3925062      0.3246058
 Leave Link  202 at Sun Jan  8 02:55:17 2017, MaxMem= 13421772800 cpu:         0.5
 (Enter /share/apps//g09/l301.exe)
 Standard basis: 6-311+G(d,p) (5D, 7F)
 Ernie: Thresh=  0.10000D-02 Tol=  0.10000D-05 Strict=F.
 There are   505 symmetry adapted cartesian basis functions of A   symmetry.
 There are   488 symmetry adapted basis functions of A   symmetry.
   488 basis functions,   764 primitive gaussians,   505 cartesian basis functions
    66 alpha electrons       66 beta electrons
       nuclear repulsion energy      1437.7951497868 Hartrees.
 IExCor= 1009 DFT=T Ex+Corr=PBE1PBE ExCW=0 ScaHFX=  0.250000
 ScaDFX=  0.750000  0.750000  1.000000  1.000000 ScalE2=  1.000000  1.000000
 IRadAn=      0 IRanWt=     -1 IRanGd=            0 ICorTp=0 IEmpDi=131
 NAtoms=   36 NActive=   36 NUniq=   36 SFac= 1.00D+00 NAtFMM=   60 NAOKFM=F Big=F
 Integral buffers will be    131072 words long.
 Raffenetti 2 integral format.
 Two-electron integral symmetry is turned on.
 R6Disp:  Grimme-D3 Dispersion energy=       -0.0245127619 Hartrees.
 Nuclear repulsion after empirical dispersion term =     1437.7706370248 Hartrees.
 Leave Link  301 at Sun Jan  8 02:55:17 2017, MaxMem= 13421772800 cpu:         1.8
 (Enter /share/apps//g09/l302.exe)
 NPDir=0 NMtPBC=     1 NCelOv=     1 NCel=       1 NClECP=     1 NCelD=      1
         NCelK=      1 NCelE2=     1 NClLst=     1 CellRange=     0.0.
 One-electron integrals computed using PRISM.
 NBasis=   488 RedAO= T EigKep=  1.54D-06  NBF=   488
 NBsUse=   488 1.00D-06 EigRej= -1.00D+00 NBFU=   488
 Precomputing XC quadrature grid using
 IXCGrd= 4 IRadAn=           0 IRanWt=          -1 IRanGd=           0 AccXCQ= 0.00D+00.
 Generated NRdTot=       0 NPtTot=           0 NUsed=           0 NTot=          32
 NSgBfM=   504   504   504   504   504 MxSgAt=    36 MxSgA2=    36.
 Leave Link  302 at Sun Jan  8 02:55:18 2017, MaxMem= 13421772800 cpu:        11.8
 (Enter /share/apps//g09/l303.exe)
 DipDrv:  MaxL=1.
 Leave Link  303 at Sun Jan  8 02:55:19 2017, MaxMem= 13421772800 cpu:         5.7
 (Enter /share/apps//g09/l401.exe)
 ExpMin= 4.38D-02 ExpMax= 8.59D+03 ExpMxC= 1.30D+03 IAcc=2 IRadAn=         4 AccDes= 0.00D+00
 Harris functional with IExCor= 1009 and IRadAn=       4 diagonalized for initial guess.
 HarFok:  IExCor= 1009 AccDes= 0.00D+00 IRadAn=         4 IDoV= 1 UseB2=F ITyADJ=14
 ICtDFT=  3500011 ScaDFX=  1.000000  1.000000  1.000000  1.000000
 FoFCou: FMM=F IPFlag=           0 FMFlag=      100000 FMFlg1=           0
         NFxFlg=           0 DoJE=T BraDBF=F KetDBF=T FulRan=T
         wScrn=  0.000000 ICntrl=     500 IOpCl=  0 I1Cent=   200000004 NGrid=           0
         NMat0=    1 NMatS0=      1 NMatT0=    0 NMatD0=    1 NMtDS0=    0 NMtDT0=    0
 Petite list used in FoFCou.
 Harris En= -881.104029056050    
 JPrj=0 DoOrth=F DoCkMO=F.
 Leave Link  401 at Sun Jan  8 02:55:20 2017, MaxMem= 13421772800 cpu:        28.6
 (Enter /share/apps//g09/l502.exe)
 Closed shell SCF:
 Using DIIS extrapolation, IDIIS=  1040.
 Integral symmetry usage will be decided dynamically.
 Keep R1 ints in memory in canonical form, NReq=7183787934.
 IVT=      797493 IEndB=      797493 NGot= 13421772800 MDV=  6302761722
 LenX=  6302761722 LenY=  6302506192
 Requested convergence on RMS density matrix=1.00D-08 within 128 cycles.
 Requested convergence on MAX density matrix=1.00D-06.
 Requested convergence on             energy=1.00D-06.
 No special actions if energy rises.
 FoFCou: FMM=F IPFlag=           0 FMFlag=           0 FMFlg1=           0
         NFxFlg=           0 DoJE=F BraDBF=F KetDBF=F FulRan=T
         wScrn=  0.000000 ICntrl=     600 IOpCl=  0 I1Cent=           0 NGrid=           0
         NMat0=    1 NMatS0= 119316 NMatT0=    0 NMatD0=    1 NMtDS0=    0 NMtDT0=    0
 Symmetry not used in FoFCou.

 Cycle   1  Pass 1  IDiag  1:
 E= -880.656265804285    
 DIIS: error= 1.92D-02 at cycle   1 NSaved=   1.
 NSaved= 1 IEnMin= 1 EnMin= -880.656265804285     IErMin= 1 ErrMin= 1.92D-02
 ErrMax= 1.92D-02  0.00D+00 EMaxC= 1.00D-01 BMatC= 3.68D-01 BMatP= 3.68D-01
 IDIUse=3 WtCom= 8.08D-01 WtEn= 1.92D-01
 Coeff-Com:  0.100D+01
 Coeff-En:   0.100D+01
 Coeff:      0.100D+01
 Gap=     0.124 Goal=   None    Shift=    0.000
 GapD=    0.124 DampG=1.000 DampE=0.500 DampFc=0.5000 IDamp=-1.
 Damping current iteration by 5.00D-01
 RMSDP=1.85D-02 MaxDP=3.02D+00              OVMax= 1.23D-01

 Cycle   2  Pass 1  IDiag  1:
 E= -880.780682514762     Delta-E=       -0.124416710477 Rises=F Damp=T
 DIIS: error= 3.31D-03 at cycle   2 NSaved=   2.
 NSaved= 2 IEnMin= 2 EnMin= -880.780682514762     IErMin= 2 ErrMin= 3.31D-03
 ErrMax= 3.31D-03  0.00D+00 EMaxC= 1.00D-01 BMatC= 2.85D-02 BMatP= 3.68D-01
 IDIUse=3 WtCom= 9.67D-01 WtEn= 3.31D-02
 Coeff-Com: -0.149D-01 0.101D+01
 Coeff-En:   0.411D-01 0.959D+00
 Coeff:     -0.130D-01 0.101D+01
 Gap=     0.228 Goal=   None    Shift=    0.000
 RMSDP=9.07D-03 MaxDP=1.56D+00 DE=-1.24D-01 OVMax= 9.34D-02

 Cycle   3  Pass 1  IDiag  1:
 E= -880.913787147379     Delta-E=       -0.133104632617 Rises=F Damp=F
 DIIS: error= 4.36D-03 at cycle   3 NSaved=   3.
 NSaved= 3 IEnMin= 3 EnMin= -880.913787147379     IErMin= 2 ErrMin= 3.31D-03
 ErrMax= 4.36D-03  0.00D+00 EMaxC= 1.00D-01 BMatC= 1.91D-02 BMatP= 2.85D-02
 IDIUse=3 WtCom= 9.56D-01 WtEn= 4.36D-02
 Coeff-Com: -0.932D-01 0.470D+00 0.623D+00
 Coeff-En:   0.000D+00 0.000D+00 0.100D+01
 Coeff:     -0.892D-01 0.450D+00 0.639D+00
 Gap=     0.194 Goal=   None    Shift=    0.000
 RMSDP=2.40D-03 MaxDP=3.49D-01 DE=-1.33D-01 OVMax= 2.47D-02

 Cycle   4  Pass 1  IDiag  1:
 E= -880.925715045571     Delta-E=       -0.011927898192 Rises=F Damp=F
 DIIS: error= 1.84D-03 at cycle   4 NSaved=   4.
 NSaved= 4 IEnMin= 4 EnMin= -880.925715045571     IErMin= 4 ErrMin= 1.84D-03
 ErrMax= 1.84D-03  0.00D+00 EMaxC= 1.00D-01 BMatC= 3.50D-03 BMatP= 1.91D-02
 IDIUse=3 WtCom= 9.82D-01 WtEn= 1.84D-02
 Coeff-Com: -0.466D-01 0.149D+00 0.353D+00 0.545D+00
 Coeff-En:   0.000D+00 0.000D+00 0.113D+00 0.887D+00
 Coeff:     -0.457D-01 0.146D+00 0.349D+00 0.551D+00
 Gap=     0.197 Goal=   None    Shift=    0.000
 RMSDP=1.42D-03 MaxDP=2.15D-01 DE=-1.19D-02 OVMax= 7.64D-03

 Cycle   5  Pass 1  IDiag  1:
 E= -880.928270262599     Delta-E=       -0.002555217028 Rises=F Damp=F
 DIIS: error= 3.75D-04 at cycle   5 NSaved=   5.
 NSaved= 5 IEnMin= 5 EnMin= -880.928270262599     IErMin= 5 ErrMin= 3.75D-04
 ErrMax= 3.75D-04  0.00D+00 EMaxC= 1.00D-01 BMatC= 1.07D-04 BMatP= 3.50D-03
 IDIUse=3 WtCom= 9.96D-01 WtEn= 3.75D-03
 Coeff-Com: -0.129D-01 0.287D-01 0.102D+00 0.228D+00 0.654D+00
 Coeff-En:   0.000D+00 0.000D+00 0.000D+00 0.000D+00 0.100D+01
 Coeff:     -0.128D-01 0.286D-01 0.102D+00 0.227D+00 0.655D+00
 Gap=     0.199 Goal=   None    Shift=    0.000
 RMSDP=1.06D-04 MaxDP=8.83D-03 DE=-2.56D-03 OVMax= 1.60D-03

 Cycle   6  Pass 1  IDiag  1:
 E= -880.928332528148     Delta-E=       -0.000062265549 Rises=F Damp=F
 DIIS: error= 1.41D-04 at cycle   6 NSaved=   6.
 NSaved= 6 IEnMin= 6 EnMin= -880.928332528148     IErMin= 6 ErrMin= 1.41D-04
 ErrMax= 1.41D-04  0.00D+00 EMaxC= 1.00D-01 BMatC= 1.94D-05 BMatP= 1.07D-04
 IDIUse=3 WtCom= 9.99D-01 WtEn= 1.41D-03
 Coeff-Com: -0.530D-02 0.937D-02 0.423D-01 0.108D+00 0.397D+00 0.449D+00
 Coeff-En:   0.000D+00 0.000D+00 0.000D+00 0.000D+00 0.831D-01 0.917D+00
 Coeff:     -0.529D-02 0.936D-02 0.423D-01 0.108D+00 0.397D+00 0.449D+00
 Gap=     0.199 Goal=   None    Shift=    0.000
 RMSDP=6.28D-05 MaxDP=1.02D-02 DE=-6.23D-05 OVMax= 6.54D-04

 Cycle   7  Pass 1  IDiag  1:
 E= -880.928346248966     Delta-E=       -0.000013720819 Rises=F Damp=F
 DIIS: error= 4.42D-05 at cycle   7 NSaved=   7.
 NSaved= 7 IEnMin= 7 EnMin= -880.928346248966     IErMin= 7 ErrMin= 4.42D-05
 ErrMax= 4.42D-05  0.00D+00 EMaxC= 1.00D-01 BMatC= 1.20D-06 BMatP= 1.94D-05
 IDIUse=1 WtCom= 1.00D+00 WtEn= 0.00D+00
 Coeff-Com: -0.182D-02 0.275D-02 0.147D-01 0.413D-01 0.170D+00 0.254D+00
 Coeff-Com:  0.519D+00
 Coeff:     -0.182D-02 0.275D-02 0.147D-01 0.413D-01 0.170D+00 0.254D+00
 Coeff:      0.519D+00
 Gap=     0.199 Goal=   None    Shift=    0.000
 RMSDP=1.50D-05 MaxDP=2.35D-03 DE=-1.37D-05 OVMax= 2.44D-04

 Cycle   8  Pass 1  IDiag  1:
 E= -880.928347092369     Delta-E=       -0.000000843403 Rises=F Damp=F
 DIIS: error= 1.58D-05 at cycle   8 NSaved=   8.
 NSaved= 8 IEnMin= 8 EnMin= -880.928347092369     IErMin= 8 ErrMin= 1.58D-05
 ErrMax= 1.58D-05  0.00D+00 EMaxC= 1.00D-01 BMatC= 1.51D-07 BMatP= 1.20D-06
 IDIUse=1 WtCom= 1.00D+00 WtEn= 0.00D+00
 Coeff-Com: -0.416D-05-0.233D-03-0.894D-04 0.234D-02 0.177D-01 0.481D-01
 Coeff-Com:  0.282D+00 0.650D+00
 Coeff:     -0.416D-05-0.233D-03-0.894D-04 0.234D-02 0.177D-01 0.481D-01
 Coeff:      0.282D+00 0.650D+00
 Gap=     0.199 Goal=   None    Shift=    0.000
 RMSDP=1.09D-05 MaxDP=2.48D-03 DE=-8.43D-07 OVMax= 6.79D-05

 Cycle   9  Pass 1  IDiag  1:
 E= -880.928347193422     Delta-E=       -0.000000101053 Rises=F Damp=F
 DIIS: error= 3.86D-06 at cycle   9 NSaved=   9.
 NSaved= 9 IEnMin= 9 EnMin= -880.928347193422     IErMin= 9 ErrMin= 3.86D-06
 ErrMax= 3.86D-06  0.00D+00 EMaxC= 1.00D-01 BMatC= 2.10D-08 BMatP= 1.51D-07
 IDIUse=1 WtCom= 1.00D+00 WtEn= 0.00D+00
 Coeff-Com:  0.913D-04-0.271D-03-0.916D-03-0.111D-02-0.954D-03 0.993D-02
 Coeff-Com:  0.126D+00 0.370D+00 0.498D+00
 Coeff:      0.913D-04-0.271D-03-0.916D-03-0.111D-02-0.954D-03 0.993D-02
 Coeff:      0.126D+00 0.370D+00 0.498D+00
 Gap=     0.199 Goal=   None    Shift=    0.000
 RMSDP=2.12D-06 MaxDP=2.85D-04 DE=-1.01D-07 OVMax= 2.18D-05

 Cycle  10  Pass 1  IDiag  1:
 E= -880.928347208114     Delta-E=       -0.000000014692 Rises=F Damp=F
 DIIS: error= 9.41D-07 at cycle  10 NSaved=  10.
 NSaved=10 IEnMin=10 EnMin= -880.928347208114     IErMin=10 ErrMin= 9.41D-07
 ErrMax= 9.41D-07  0.00D+00 EMaxC= 1.00D-01 BMatC= 9.67D-10 BMatP= 2.10D-08
 IDIUse=1 WtCom= 1.00D+00 WtEn= 0.00D+00
 Coeff-Com:  0.451D-04-0.974D-04-0.461D-03-0.872D-03-0.307D-02-0.195D-02
 Coeff-Com:  0.227D-01 0.816D-01 0.212D+00 0.690D+00
 Coeff:      0.451D-04-0.974D-04-0.461D-03-0.872D-03-0.307D-02-0.195D-02
 Coeff:      0.227D-01 0.816D-01 0.212D+00 0.690D+00
 Gap=     0.199 Goal=   None    Shift=    0.000
 RMSDP=7.64D-07 MaxDP=1.07D-04 DE=-1.47D-08 OVMax= 5.79D-06

 Cycle  11  Pass 1  IDiag  1:
 E= -880.928347208821     Delta-E=       -0.000000000707 Rises=F Damp=F
 DIIS: error= 2.25D-07 at cycle  11 NSaved=  11.
 NSaved=11 IEnMin=11 EnMin= -880.928347208821     IErMin=11 ErrMin= 2.25D-07
 ErrMax= 2.25D-07  0.00D+00 EMaxC= 1.00D-01 BMatC= 6.69D-11 BMatP= 9.67D-10
 IDIUse=1 WtCom= 1.00D+00 WtEn= 0.00D+00
 Coeff-Com:  0.137D-04-0.269D-04-0.151D-03-0.313D-03-0.126D-02-0.131D-02
 Coeff-Com:  0.315D-02 0.149D-01 0.612D-01 0.300D+00 0.624D+00
 Coeff:      0.137D-04-0.269D-04-0.151D-03-0.313D-03-0.126D-02-0.131D-02
 Coeff:      0.315D-02 0.149D-01 0.612D-01 0.300D+00 0.624D+00
 Gap=     0.199 Goal=   None    Shift=    0.000
 RMSDP=1.33D-07 MaxDP=1.34D-05 DE=-7.07D-10 OVMax= 1.55D-06

 Cycle  12  Pass 1  IDiag  1:
 E= -880.928347208893     Delta-E=       -0.000000000072 Rises=F Damp=F
 DIIS: error= 9.56D-08 at cycle  12 NSaved=  12.
 NSaved=12 IEnMin=12 EnMin= -880.928347208893     IErMin=12 ErrMin= 9.56D-08
 ErrMax= 9.56D-08  0.00D+00 EMaxC= 1.00D-01 BMatC= 1.17D-11 BMatP= 6.69D-11
 IDIUse=1 WtCom= 1.00D+00 WtEn= 0.00D+00
 Coeff-Com:  0.892D-06-0.507D-06-0.182D-04-0.468D-04-0.236D-03-0.382D-03
 Coeff-Com: -0.140D-02-0.309D-02 0.398D-02 0.686D-01 0.332D+00 0.601D+00
 Coeff:      0.892D-06-0.507D-06-0.182D-04-0.468D-04-0.236D-03-0.382D-03
 Coeff:     -0.140D-02-0.309D-02 0.398D-02 0.686D-01 0.332D+00 0.601D+00
 Gap=     0.199 Goal=   None    Shift=    0.000
 RMSDP=8.23D-08 MaxDP=1.54D-05 DE=-7.19D-11 OVMax= 8.56D-07

 Cycle  13  Pass 1  IDiag  1:
 E= -880.928347208916     Delta-E=       -0.000000000023 Rises=F Damp=F
 DIIS: error= 2.82D-08 at cycle  13 NSaved=  13.
 NSaved=13 IEnMin=13 EnMin= -880.928347208916     IErMin=13 ErrMin= 2.82D-08
 ErrMax= 2.82D-08  0.00D+00 EMaxC= 1.00D-01 BMatC= 8.12D-13 BMatP= 1.17D-11
 IDIUse=1 WtCom= 1.00D+00 WtEn= 0.00D+00
 Coeff-Com: -0.430D-06 0.143D-05 0.105D-05-0.194D-05-0.246D-04-0.742D-04
 Coeff-Com: -0.849D-03-0.228D-02-0.196D-02 0.994D-02 0.108D+00 0.285D+00
 Coeff-Com:  0.603D+00
 Coeff:     -0.430D-06 0.143D-05 0.105D-05-0.194D-05-0.246D-04-0.742D-04
 Coeff:     -0.849D-03-0.228D-02-0.196D-02 0.994D-02 0.108D+00 0.285D+00
 Coeff:      0.603D+00
 Gap=     0.199 Goal=   None    Shift=    0.000
 RMSDP=2.91D-08 MaxDP=5.26D-06 DE=-2.27D-11 OVMax= 1.53D-07

 Cycle  14  Pass 1  IDiag  1:
 E= -880.928347208899     Delta-E=        0.000000000017 Rises=F Damp=F
 DIIS: error= 9.17D-09 at cycle  14 NSaved=  14.
 NSaved=14 IEnMin=13 EnMin= -880.928347208916     IErMin=14 ErrMin= 9.17D-09
 ErrMax= 9.17D-09  0.00D+00 EMaxC= 1.00D-01 BMatC= 1.13D-13 BMatP= 8.12D-13
 IDIUse=1 WtCom= 1.00D+00 WtEn= 0.00D+00
 Coeff-Com: -0.329D-06 0.800D-06 0.280D-05 0.451D-05 0.161D-04 0.821D-05
 Coeff-Com: -0.299D-03-0.872D-03-0.154D-02-0.391D-02 0.144D-01 0.752D-01
 Coeff-Com:  0.315D+00 0.602D+00
 Coeff:     -0.329D-06 0.800D-06 0.280D-05 0.451D-05 0.161D-04 0.821D-05
 Coeff:     -0.299D-03-0.872D-03-0.154D-02-0.391D-02 0.144D-01 0.752D-01
 Coeff:      0.315D+00 0.602D+00
 Gap=     0.199 Goal=   None    Shift=    0.000
 RMSDP=1.31D-08 MaxDP=2.52D-06 DE= 1.68D-11 OVMax= 6.05D-08

 Cycle  15  Pass 1  IDiag  1:
 E= -880.928347208906     Delta-E=       -0.000000000007 Rises=F Damp=F
 DIIS: error= 1.45D-09 at cycle  15 NSaved=  15.
 NSaved=15 IEnMin=13 EnMin= -880.928347208916     IErMin=15 ErrMin= 1.45D-09
 ErrMax= 1.45D-09  0.00D+00 EMaxC= 1.00D-01 BMatC= 3.39D-15 BMatP= 1.13D-13
 IDIUse=1 WtCom= 1.00D+00 WtEn= 0.00D+00
 Coeff-Com: -0.717D-07 0.159D-06 0.823D-06 0.147D-05 0.662D-05 0.695D-05
 Coeff-Com: -0.400D-04-0.127D-03-0.338D-03-0.189D-02-0.211D-02 0.578D-02
 Coeff-Com:  0.663D-01 0.207D+00 0.725D+00
 Coeff:     -0.717D-07 0.159D-06 0.823D-06 0.147D-05 0.662D-05 0.695D-05
 Coeff:     -0.400D-04-0.127D-03-0.338D-03-0.189D-02-0.211D-02 0.578D-02
 Coeff:      0.663D-01 0.207D+00 0.725D+00
 Gap=     0.199 Goal=   None    Shift=    0.000
 RMSDP=5.54D-09 MaxDP=9.26D-07 DE=-6.82D-12 OVMax= 2.33D-08

 SCF Done:  E(RPBE1PBE) =  -880.928347209     A.U. after   15 cycles
            NFock= 15  Conv=0.55D-08     -V/T= 2.0043
 KE= 8.771313743244D+02 PE=-4.918344810782D+03 EE= 1.722514452224D+03
 Leave Link  502 at Sun Jan  8 02:58:48 2017, MaxMem= 13421772800 cpu:       969.6
 (Enter /share/apps//g09/l601.exe)
 Copying SCF densities to generalized density rwf, IOpCl= 0 IROHF=0.

 **********************************************************************

            Population analysis using the SCF density.

 **********************************************************************

 Orbital symmetries:
       Occupied  (A) (A) (A) (A) (A) (A) (A) (A) (A) (A) (A) (A)
                 (A) (A) (A) (A) (A) (A) (A) (A) (A) (A) (A) (A)
                 (A) (A) (A) (A) (A) (A) (A) (A) (A) (A) (A) (A)
                 (A) (A) (A) (A) (A) (A) (A) (A) (A) (A) (A) (A)
                 (A) (A) (A) (A) (A) (A) (A) (A) (A) (A) (A) (A)
                 (A) (A) (A) (A) (A) (A)
       Virtual   (A) (A) (A) (A) (A) (A) (A) (A) (A) (A) (A) (A)
                 (A) (A) (A) (A) (A) (A) (A) (A) (A) (A) (A) (A)
                 (A) (A) (A) (A) (A) (A) (A) (A) (A) (A) (A) (A)
                 (A) (A) (A) (A) (A) (A) (A) (A) (A) (A) (A) (A)
                 (A) (A) (A) (A) (A) (A) (A) (A) (A) (A) (A) (A)
                 (A) (A) (A) (A) (A) (A) (A) (A) (A) (A) (A) (A)
                 (A) (A) (A) (A) (A) (A) (A) (A) (A) (A) (A) (A)
                 (A) (A) (A) (A) (A) (A) (A) (A) (A) (A) (A) (A)
                 (A) (A) (A) (A) (A) (A) (A) (A) (A) (A) (A) (A)
                 (A) (A) (A) (A) (A) (A) (A) (A) (A) (A) (A) (A)
                 (A) (A) (A) (A) (A) (A) (A) (A) (A) (A) (A) (A)
                 (A) (A) (A) (A) (A) (A) (A) (A) (A) (A) (A) (A)
                 (A) (A) (A) (A) (A) (A) (A) (A) (A) (A) (A) (A)
                 (A) (A) (A) (A) (A) (A) (A) (A) (A) (A) (A) (A)
                 (A) (A) (A) (A) (A) (A) (A) (A) (A) (A) (A) (A)
                 (A) (A) (A) (A) (A) (A) (A) (A) (A) (A) (A) (A)
                 (A) (A) (A) (A) (A) (A) (A) (A) (A) (A) (A) (A)
                 (A) (A) (A) (A) (A) (A) (A) (A) (A) (A) (A) (A)
                 (A) (A) (A) (A) (A) (A) (A) (A) (A) (A) (A) (A)
                 (A) (A) (A) (A) (A) (A) (A) (A) (A) (A) (A) (A)
                 (A) (A) (A) (A) (A) (A) (A) (A) (A) (A) (A) (A)
                 (A) (A) (A) (A) (A) (A) (A) (A) (A) (A) (A) (A)
                 (A) (A) (A) (A) (A) (A) (A) (A) (A) (A) (A) (A)
                 (A) (A) (A) (A) (A) (A) (A) (A) (A) (A) (A) (A)
                 (A) (A) (A) (A) (A) (A) (A) (A) (A) (A) (A) (A)
                 (A) (A) (A) (A) (A) (A) (A) (A) (A) (A) (A) (A)
                 (A) (A) (A) (A) (A) (A) (A) (A) (A) (A) (A) (A)
                 (A) (A) (A) (A) (A) (A) (A) (A) (A) (A) (A) (A)
                 (A) (A) (A) (A) (A) (A) (A) (A) (A) (A) (A) (A)
                 (A) (A) (A) (A) (A) (A) (A) (A) (A) (A) (A) (A)
                 (A) (A) (A) (A) (A) (A) (A) (A) (A) (A) (A) (A)
                 (A) (A) (A) (A) (A) (A) (A) (A) (A) (A) (A) (A)
                 (A) (A) (A) (A) (A) (A) (A) (A) (A) (A) (A) (A)
                 (A) (A) (A) (A) (A) (A) (A) (A) (A) (A) (A) (A)
                 (A) (A) (A) (A) (A) (A) (A) (A) (A) (A) (A) (A)
                 (A) (A)
 The electronic state is 1-A.
 Alpha  occ. eigenvalues --  -19.45133 -19.44255 -19.40766 -19.36402 -19.35870
 Alpha  occ. eigenvalues --  -19.33695 -10.57231 -10.51337 -10.46196 -10.44614
 Alpha  occ. eigenvalues --  -10.44328 -10.44138 -10.40743 -10.39443 -10.39021
 Alpha  occ. eigenvalues --  -10.38917 -10.37142  -1.35175  -1.28093  -1.26108
 Alpha  occ. eigenvalues --   -1.22115  -1.20794  -1.19165  -1.00915  -0.97921
 Alpha  occ. eigenvalues --   -0.94929  -0.89055  -0.87928  -0.85376  -0.82391
 Alpha  occ. eigenvalues --   -0.81106  -0.78217  -0.77442  -0.76093  -0.72522
 Alpha  occ. eigenvalues --   -0.71246  -0.67890  -0.67034  -0.66425  -0.66028
 Alpha  occ. eigenvalues --   -0.63693  -0.63355  -0.62567  -0.61582  -0.61131
 Alpha  occ. eigenvalues --   -0.60616  -0.59348  -0.58361  -0.57938  -0.57501
 Alpha  occ. eigenvalues --   -0.57117  -0.56198  -0.55775  -0.54623  -0.54120
 Alpha  occ. eigenvalues --   -0.52285  -0.51952  -0.51480  -0.49343  -0.48331
 Alpha  occ. eigenvalues --   -0.47735  -0.46772  -0.46332  -0.42899  -0.42023
 Alpha  occ. eigenvalues --   -0.40007
 Alpha virt. eigenvalues --   -0.20125  -0.12325  -0.11808  -0.09463  -0.09039
 Alpha virt. eigenvalues --   -0.08322  -0.08259  -0.07289  -0.06802  -0.06509
 Alpha virt. eigenvalues --   -0.06284  -0.05894  -0.05777  -0.04941  -0.04800
 Alpha virt. eigenvalues --   -0.03845  -0.03571  -0.02927  -0.02604  -0.02235
 Alpha virt. eigenvalues --   -0.01773  -0.01423  -0.00790  -0.00696  -0.00334
 Alpha virt. eigenvalues --    0.00041   0.00192   0.00786   0.00855   0.01320
 Alpha virt. eigenvalues --    0.01595   0.02399   0.02436   0.03044   0.03263
 Alpha virt. eigenvalues --    0.03592   0.04145   0.04726   0.04891   0.05547
 Alpha virt. eigenvalues --    0.05970   0.06397   0.06832   0.06980   0.07184
 Alpha virt. eigenvalues --    0.07510   0.07931   0.08324   0.08429   0.08672
 Alpha virt. eigenvalues --    0.09306   0.09686   0.09913   0.10697   0.10972
 Alpha virt. eigenvalues --    0.11210   0.11674   0.11852   0.12134   0.12357
 Alpha virt. eigenvalues --    0.12698   0.12771   0.13566   0.13731   0.14330
 Alpha virt. eigenvalues --    0.14542   0.14706   0.15360   0.15759   0.16190
 Alpha virt. eigenvalues --    0.17072   0.17226   0.17572   0.17907   0.18243
 Alpha virt. eigenvalues --    0.18639   0.19466   0.19880   0.20455   0.20769
 Alpha virt. eigenvalues --    0.21261   0.21948   0.22595   0.22830   0.23340
 Alpha virt. eigenvalues --    0.23550   0.24028   0.24884   0.25562   0.26169
 Alpha virt. eigenvalues --    0.27178   0.27523   0.27754   0.28284   0.28630
 Alpha virt. eigenvalues --    0.29405   0.29948   0.30186   0.30616   0.31092
 Alpha virt. eigenvalues --    0.32168   0.32332   0.33140   0.33818   0.34501
 Alpha virt. eigenvalues --    0.34790   0.35559   0.36216   0.37078   0.37891
 Alpha virt. eigenvalues --    0.38324   0.39705   0.39914   0.41126   0.42118
 Alpha virt. eigenvalues --    0.43133   0.43659   0.44937   0.44999   0.45866
 Alpha virt. eigenvalues --    0.46869   0.47336   0.48149   0.48616   0.48743
 Alpha virt. eigenvalues --    0.50275   0.50668   0.51546   0.52600   0.54017
 Alpha virt. eigenvalues --    0.54361   0.54864   0.55864   0.56277   0.56984
 Alpha virt. eigenvalues --    0.57090   0.57286   0.57541   0.58463   0.58894
 Alpha virt. eigenvalues --    0.59161   0.60160   0.60303   0.61209   0.61509
 Alpha virt. eigenvalues --    0.62545   0.62839   0.63448   0.63600   0.64210
 Alpha virt. eigenvalues --    0.65547   0.66243   0.67103   0.67369   0.69305
 Alpha virt. eigenvalues --    0.71691   0.72628   0.75986   0.78178   0.79891
 Alpha virt. eigenvalues --    0.81522   0.84299   0.86258   0.87600   0.88174
 Alpha virt. eigenvalues --    0.90898   0.91935   0.93953   0.94861   0.95746
 Alpha virt. eigenvalues --    0.96971   0.97279   0.98682   0.99666   1.01282
 Alpha virt. eigenvalues --    1.02511   1.03099   1.04462   1.06401   1.06888
 Alpha virt. eigenvalues --    1.07547   1.08811   1.09787   1.12121   1.13364
 Alpha virt. eigenvalues --    1.14883   1.16323   1.17126   1.17780   1.19679
 Alpha virt. eigenvalues --    1.20938   1.22284   1.23164   1.24392   1.24793
 Alpha virt. eigenvalues --    1.26745   1.27196   1.28583   1.29664   1.30031
 Alpha virt. eigenvalues --    1.31797   1.32570   1.33304   1.34468   1.34604
 Alpha virt. eigenvalues --    1.36228   1.36844   1.38046   1.39538   1.40627
 Alpha virt. eigenvalues --    1.41522   1.42628   1.44173   1.44854   1.44893
 Alpha virt. eigenvalues --    1.45407   1.45482   1.46498   1.46909   1.47178
 Alpha virt. eigenvalues --    1.48173   1.48392   1.48957   1.49476   1.50391
 Alpha virt. eigenvalues --    1.51153   1.51857   1.52260   1.54355   1.55828
 Alpha virt. eigenvalues --    1.55981   1.56762   1.58124   1.58473   1.58968
 Alpha virt. eigenvalues --    1.60193   1.60577   1.62877   1.63590   1.63717
 Alpha virt. eigenvalues --    1.64915   1.65151   1.66506   1.67377   1.67843
 Alpha virt. eigenvalues --    1.69548   1.70789   1.71603   1.73073   1.74519
 Alpha virt. eigenvalues --    1.76818   1.77859   1.79721   1.80132   1.81998
 Alpha virt. eigenvalues --    1.83217   1.84892   1.85390   1.86296   1.88140
 Alpha virt. eigenvalues --    1.89056   1.90494   1.92021   1.93580   1.94134
 Alpha virt. eigenvalues --    1.95281   1.99023   1.99814   2.01560   2.02852
 Alpha virt. eigenvalues --    2.03784   2.05983   2.07017   2.07709   2.07977
 Alpha virt. eigenvalues --    2.08672   2.10016   2.12049   2.12486   2.14029
 Alpha virt. eigenvalues --    2.14913   2.17728   2.18908   2.20375   2.21445
 Alpha virt. eigenvalues --    2.23761   2.32069   2.33170   2.33527   2.34111
 Alpha virt. eigenvalues --    2.34729   2.36601   2.39015   2.39652   2.40075
 Alpha virt. eigenvalues --    2.40738   2.41471   2.41972   2.42456   2.43364
 Alpha virt. eigenvalues --    2.44129   2.44275   2.45154   2.46429   2.47164
 Alpha virt. eigenvalues --    2.47659   2.48418   2.49219   2.50897   2.51575
 Alpha virt. eigenvalues --    2.55276   2.56604   2.57386   2.58210   2.60623
 Alpha virt. eigenvalues --    2.63805   2.67158   2.68648   2.70595   2.71570
 Alpha virt. eigenvalues --    2.72719   2.73597   2.75285   2.76172   2.76689
 Alpha virt. eigenvalues --    2.78304   2.79938   2.82170   2.84068   2.84781
 Alpha virt. eigenvalues --    2.87701   2.89312   2.91957   2.92553   2.93236
 Alpha virt. eigenvalues --    2.95090   2.95557   2.97296   2.98054   2.99941
 Alpha virt. eigenvalues --    3.00908   3.02381   3.04942   3.05937   3.07566
 Alpha virt. eigenvalues --    3.08050   3.08708   3.09466   3.11238   3.12251
 Alpha virt. eigenvalues --    3.13775   3.14823   3.16641   3.18904   3.21262
 Alpha virt. eigenvalues --    3.24963   3.27871   3.31148   3.35620   3.39556
 Alpha virt. eigenvalues --    3.48682   3.61889   3.65830   3.67319   3.68150
 Alpha virt. eigenvalues --    3.68949   3.69202   3.70653   3.70789   3.71567
 Alpha virt. eigenvalues --    3.72412   3.77186   3.82205   3.86098   3.90866
 Alpha virt. eigenvalues --    3.92977   3.94639   3.95764   3.99154   4.02210
 Alpha virt. eigenvalues --    4.04656   4.06884   4.09433   4.09906   4.12784
 Alpha virt. eigenvalues --    4.20196   4.24999   4.94957   4.96829   5.02471
 Alpha virt. eigenvalues --    5.03275   5.05298   5.07396   5.13083   5.21599
 Alpha virt. eigenvalues --    5.27878   5.31391   5.33742   5.33983   5.47673
 Alpha virt. eigenvalues --    5.57135   5.59509   5.61503   5.63927   5.81411
 Alpha virt. eigenvalues --   23.68510  23.72174  23.75826  23.77560  23.81067
 Alpha virt. eigenvalues --   23.82010  23.88631  23.89174  23.90117  23.90636
 Alpha virt. eigenvalues --   23.90880  49.89339  49.90194  49.94396  49.95972
 Alpha virt. eigenvalues --   49.97754  50.01655
          Condensed to atoms (all electrons):
               1          2          3          4          5          6
     1  C   12.620754  -6.160003   0.165852  -0.379908  -1.523144   1.203413
     2  C   -6.160003  21.594761  -6.705275  -0.346119   1.984755  -2.494482
     3  C    0.165852  -6.705275  20.558447 -14.444356   7.995186  -4.077540
     4  C   -0.379908  -0.346119 -14.444356  34.354201 -20.002921   8.790123
     5  C   -1.523144   1.984755   7.995186 -20.002921  28.712042 -12.417594
     6  C    1.203413  -2.494482  -4.077540   8.790123 -12.417594  15.801238
     7  O    0.020736  -0.268871   0.103125   0.103245  -0.154095   0.297398
     8  O   -0.017990   0.173632   0.153127  -0.506783   0.318188  -0.115709
     9  O    0.124645  -0.199399  -0.069778   0.128709  -0.336588   0.389561
    10  O   -0.253726   0.102232   0.107524   0.071725  -0.028684   0.024624
    11  H    0.390091  -0.123333   0.090254  -0.009249   0.013320  -0.013334
    12  H    0.279107   0.090895  -0.071505   0.029830  -0.016050   0.008102
    13  H    0.036074   0.120646   0.055543   0.055322  -0.053464   0.038802
    14  H    0.013207  -0.100835   0.415592   0.055137  -0.052287   0.006465
    15  H    0.005421   0.008937   0.098203   0.060252   0.154942  -0.018366
    16  H    0.017561  -0.011636   0.006964   0.122642   0.123781   0.080021
    17  H   -0.025430  -0.015638   0.042455  -0.025795   0.097233   0.281408
    18  O    0.091976  -0.000863   0.010427  -0.087077   0.011981   0.073323
    19  C    0.066625  -0.301996   0.062539  -0.039337   0.006134  -0.004426
    20  H    0.031624  -0.002522  -0.004202   0.000571  -0.000370   0.000080
    21  H   -0.012635  -0.014320   0.010062   0.000111  -0.000224   0.000966
    22  H   -0.002868   0.003418  -0.005820   0.000504   0.000113  -0.000498
    23  C    0.002682   0.006486   0.039166  -0.281515   0.038460  -0.016251
    24  H   -0.001135  -0.000299   0.008045  -0.043499   0.018600   0.003029
    25  H    0.000890  -0.002884  -0.002926   0.065133  -0.074357   0.012672
    26  H    0.000653   0.001223  -0.002970  -0.001655   0.033318   0.001199
    27  C   -0.016250  -0.204181   0.074362  -0.055469  -0.150988   0.072475
    28  H    0.002209   0.007798   0.051219  -0.035364  -0.042926   0.002053
    29  H   -0.000317  -0.000734  -0.002921  -0.055068   0.061590  -0.003013
    30  H    0.000070   0.000956   0.004793   0.027815   0.000512  -0.002263
    31  C   -0.218553   0.153228   0.577168  -1.048562   1.100884  -1.203639
    32  O   -0.015148   0.318606  -0.094666  -0.190965  -0.052181   0.231980
    33  C   -0.096469  -0.611654   0.586226   0.263202   0.163359  -0.508875
    34  H   -0.000021  -0.000969  -0.012683   0.014377  -0.010242   0.003125
    35  H    0.004418  -0.009196   0.003452   0.001140  -0.005075   0.005397
    36  H   -0.000507   0.000970   0.000083  -0.003397   0.007456  -0.004967
               7          8          9         10         11         12
     1  C    0.020736  -0.017990   0.124645  -0.253726   0.390091   0.279107
     2  C   -0.268871   0.173632  -0.199399   0.102232  -0.123333   0.090895
     3  C    0.103125   0.153127  -0.069778   0.107524   0.090254  -0.071505
     4  C    0.103245  -0.506783   0.128709   0.071725  -0.009249   0.029830
     5  C   -0.154095   0.318188  -0.336588  -0.028684   0.013320  -0.016050
     6  C    0.297398  -0.115709   0.389561   0.024624  -0.013334   0.008102
     7  O    7.802737  -0.007767   0.050573   0.018402  -0.001810   0.010610
     8  O   -0.007767   7.969595   0.079434  -0.001701   0.000021  -0.000194
     9  O    0.050573   0.079434   7.943999  -0.000835  -0.002523   0.015200
    10  O    0.018402  -0.001701  -0.000835   8.119386  -0.039975  -0.045141
    11  H   -0.001810   0.000021  -0.002523  -0.039975   0.514858  -0.044890
    12  H    0.010610  -0.000194   0.015200  -0.045141  -0.044890   0.530934
    13  H   -0.007549  -0.003598   0.010864   0.003841  -0.008338   0.005570
    14  H    0.007241  -0.012985  -0.051496   0.013869  -0.000125   0.001574
    15  H    0.000066  -0.007070   0.010921  -0.000329  -0.000018   0.000010
    16  H    0.006827   0.008136   0.005807   0.000045  -0.000004   0.000009
    17  H   -0.063583  -0.001693  -0.006374   0.000098   0.000118   0.000038
    18  O    0.014147   0.015386   0.001289  -0.000421   0.000065  -0.000140
    19  C    0.005404  -0.000405  -0.000488   0.107669  -0.001019  -0.003055
    20  H    0.000121  -0.000002   0.000076  -0.053347  -0.000195  -0.000302
    21  H    0.000328  -0.000002   0.000389  -0.038121  -0.003710   0.011605
    22  H   -0.000234   0.000000  -0.000108  -0.048629   0.010929  -0.003965
    23  C    0.002071   0.004175   0.001109  -0.000260  -0.000513   0.000003
    24  H    0.000070   0.000036  -0.000116   0.000005   0.000010   0.000001
    25  H    0.000432   0.000137   0.000061   0.000001  -0.000000   0.000000
    26  H   -0.000429   0.000100   0.000014   0.000000   0.000000  -0.000000
    27  C    0.004367   0.120397   0.009430   0.002049   0.000081   0.000333
    28  H   -0.000030  -0.044503  -0.002482   0.000005  -0.000000   0.000019
    29  H   -0.000005  -0.028471   0.000708  -0.000040  -0.000001  -0.000000
    30  H    0.000017  -0.061434  -0.000679  -0.000001  -0.000000   0.000000
    31  C   -0.012455   0.068371   0.338138  -0.005393   0.006366   0.009403
    32  O   -0.085104   0.033149  -0.082406  -0.002301   0.000235  -0.002386
    33  C    0.011105  -0.178259  -0.570072   0.005658   0.001877  -0.008662
    34  H    0.000180  -0.001299  -0.000765   0.000007   0.000000  -0.000009
    35  H    0.000134   0.000230  -0.011193   0.000057   0.000002   0.000026
    36  H   -0.000319   0.000313   0.014945   0.000003   0.000001  -0.000031
              13         14         15         16         17         18
     1  C    0.036074   0.013207   0.005421   0.017561  -0.025430   0.091976
     2  C    0.120646  -0.100835   0.008937  -0.011636  -0.015638  -0.000863
     3  C    0.055543   0.415592   0.098203   0.006964   0.042455   0.010427
     4  C    0.055322   0.055137   0.060252   0.122642  -0.025795  -0.087077
     5  C   -0.053464  -0.052287   0.154942   0.123781   0.097233   0.011981
     6  C    0.038802   0.006465  -0.018366   0.080021   0.281408   0.073323
     7  O   -0.007549   0.007241   0.000066   0.006827  -0.063583   0.014147
     8  O   -0.003598  -0.012985  -0.007070   0.008136  -0.001693   0.015386
     9  O    0.010864  -0.051496   0.010921   0.005807  -0.006374   0.001289
    10  O    0.003841   0.013869  -0.000329   0.000045   0.000098  -0.000421
    11  H   -0.008338  -0.000125  -0.000018  -0.000004   0.000118   0.000065
    12  H    0.005570   0.001574   0.000010   0.000009   0.000038  -0.000140
    13  H    0.427769   0.001992   0.000776  -0.000059   0.000426  -0.005040
    14  H    0.001992   0.385435  -0.006572   0.000072   0.000047  -0.000911
    15  H    0.000776  -0.006572   0.439225   0.000124  -0.000194   0.002490
    16  H   -0.000059   0.000072   0.000124   0.450090  -0.006846  -0.021439
    17  H    0.000426   0.000047  -0.000194  -0.006846   0.441553  -0.008317
    18  O   -0.005040  -0.000911   0.002490  -0.021439  -0.008317   7.892146
    19  C    0.003059   0.000404  -0.000092  -0.000009   0.000062  -0.000100
    20  H    0.000034  -0.000018  -0.000002   0.000000   0.000000  -0.000001
    21  H    0.000083   0.000204   0.000000   0.000000  -0.000000  -0.000001
    22  H   -0.000124  -0.000090  -0.000000  -0.000000   0.000000   0.000002
    23  C   -0.003131  -0.000740   0.006980  -0.008746  -0.007688   0.131739
    24  H    0.000132   0.000000   0.000023  -0.003719   0.001373  -0.043657
    25  H    0.000018  -0.000001   0.000008   0.013474  -0.000642  -0.030591
    26  H   -0.000065  -0.000001  -0.000145   0.000167  -0.000250  -0.057548
    27  C    0.002214   0.000804  -0.004713   0.000534  -0.000483   0.002448
    28  H   -0.000028   0.000944  -0.003488   0.000130   0.000003   0.000107
    29  H    0.000024  -0.000219   0.013076  -0.000025  -0.000003  -0.000092
    30  H    0.000002  -0.000173  -0.000025  -0.000141  -0.000000   0.000098
    31  C    0.013913   0.027447  -0.011152  -0.027683   0.057517  -0.028076
    32  O   -0.006616  -0.003860   0.001987   0.017253  -0.069092   0.021459
    33  C    0.005713   0.013448  -0.008678  -0.027706   0.029962  -0.006974
    34  H    0.000001   0.000029  -0.000006   0.000095  -0.000003   0.000009
    35  H    0.000010   0.000007   0.000003   0.000003   0.000019  -0.000001
    36  H   -0.000003   0.000003   0.000001   0.000005  -0.000003  -0.000000
              19         20         21         22         23         24
     1  C    0.066625   0.031624  -0.012635  -0.002868   0.002682  -0.001135
     2  C   -0.301996  -0.002522  -0.014320   0.003418   0.006486  -0.000299
     3  C    0.062539  -0.004202   0.010062  -0.005820   0.039166   0.008045
     4  C   -0.039337   0.000571   0.000111   0.000504  -0.281515  -0.043499
     5  C    0.006134  -0.000370  -0.000224   0.000113   0.038460   0.018600
     6  C   -0.004426   0.000080   0.000966  -0.000498  -0.016251   0.003029
     7  O    0.005404   0.000121   0.000328  -0.000234   0.002071   0.000070
     8  O   -0.000405  -0.000002  -0.000002   0.000000   0.004175   0.000036
     9  O   -0.000488   0.000076   0.000389  -0.000108   0.001109  -0.000116
    10  O    0.107669  -0.053347  -0.038121  -0.048629  -0.000260   0.000005
    11  H   -0.001019  -0.000195  -0.003710   0.010929  -0.000513   0.000010
    12  H   -0.003055  -0.000302   0.011605  -0.003965   0.000003   0.000001
    13  H    0.003059   0.000034   0.000083  -0.000124  -0.003131   0.000132
    14  H    0.000404  -0.000018   0.000204  -0.000090  -0.000740   0.000000
    15  H   -0.000092  -0.000002   0.000000  -0.000000   0.006980   0.000023
    16  H   -0.000009   0.000000   0.000000  -0.000000  -0.008746  -0.003719
    17  H    0.000062   0.000000  -0.000000   0.000000  -0.007688   0.001373
    18  O   -0.000100  -0.000001  -0.000001   0.000002   0.131739  -0.043657
    19  C    5.126213   0.402881   0.415898   0.417843   0.000122   0.000005
    20  H    0.402881   0.481487  -0.023273  -0.020621  -0.000003  -0.000000
    21  H    0.415898  -0.023273   0.532128  -0.042800   0.000003  -0.000000
    22  H    0.417843  -0.020621  -0.042800   0.521221  -0.000002   0.000000
    23  C    0.000122  -0.000003   0.000003  -0.000002   5.183936   0.418855
    24  H    0.000005  -0.000000  -0.000000   0.000000   0.418855   0.530913
    25  H    0.000000   0.000000  -0.000000  -0.000000   0.393493  -0.040739
    26  H   -0.000002   0.000000  -0.000000   0.000000   0.403863  -0.022570
    27  C    0.000268  -0.000011   0.000049  -0.000002  -0.001661   0.000111
    28  H    0.000042  -0.000000   0.000000  -0.000000  -0.000080   0.000000
    29  H   -0.000005  -0.000000   0.000000  -0.000000   0.000428  -0.000001
    30  H    0.000004  -0.000000  -0.000000  -0.000000  -0.000071  -0.000000
    31  C    0.005001   0.000087  -0.000033   0.000563  -0.019194   0.002961
    32  O   -0.001210  -0.000001   0.000010  -0.000005  -0.002533  -0.001249
    33  C    0.008585   0.000031  -0.001411   0.000254   0.000681   0.000745
    34  H   -0.000010   0.000000  -0.000000  -0.000000  -0.000070   0.000000
    35  H    0.000109   0.000000  -0.000003   0.000000  -0.000006   0.000000
    36  H   -0.000015   0.000000  -0.000000   0.000000   0.000052  -0.000000
              25         26         27         28         29         30
     1  C    0.000890   0.000653  -0.016250   0.002209  -0.000317   0.000070
     2  C   -0.002884   0.001223  -0.204181   0.007798  -0.000734   0.000956
     3  C   -0.002926  -0.002970   0.074362   0.051219  -0.002921   0.004793
     4  C    0.065133  -0.001655  -0.055469  -0.035364  -0.055068   0.027815
     5  C   -0.074357   0.033318  -0.150988  -0.042926   0.061590   0.000512
[...]
 798,0.00053883,0.00362706,0.00715117,0.01992734,-0.00545136,-0.0625109
 2,0.00491015,0.00532754,-0.00823825,-0.03297780,0.02451375,0.00057487,
 -0.00359353,-0.00359504,-0.00135244,0.03961740,0.04295909,-0.00058145,
 0.00004630,0.00046528,-0.00003962,-0.00003186,0.00013145,0.00030028,0.
 00012641,0.00013931,-0.00082601,-0.00013477,0.00055618,0.00087296,-0.0
 0083550,0.00067551,0.00086837,-0.00003318,-0.00019832,0.00142921,-0.00
 014439,0.00068895,0.00250772,0.00519996,-0.00357592,-0.00361438,0.0026
 4206,-0.00838615,0.00053512,-0.00004087,-0.00017585,-0.00001833,0.0000
 3184,0.00002358,-0.00002260,0.00000824,-0.00000974,-0.00007078,-0.0000
 5972,-0.00001465,0.00094639,-0.00258918,-0.00114583,0.00006133,-0.0001
 3272,0.00058464,-0.00003255,0.00017090,0.00018148,-0.00014498,0.000234
 28,0.00004520,-0.00103474,0.00202604,-0.00013341,0.00034973,-0.0005778
 5,-0.00029945,0.00012505,-0.00054675,-0.00031403,0.00005682,-0.0001332
 4,-0.00003062,-0.12849500,0.12520578,0.04637916,0.18411348,0.00184355,
 -0.00066311,0.00160841,0.00327986,-0.01054886,-0.01609396,-0.00256104,
 -0.00960785,0.02061932,0.00089832,-0.00158174,-0.00487740,-0.00448374,
 -0.02123920,0.00331743,0.04011646,-0.01874169,-0.02778824,-0.05497877,
 -0.01143308,0.03643089,0.00004501,0.00242031,-0.00165462,0.03896323,-0
 .01654620,-0.06397784,-0.00184661,0.00188578,0.00084533,0.00070877,0.0
 0037559,-0.00039840,-0.00054373,-0.00020818,-0.00041999,0.00060332,0.0
 0303234,0.00289060,-0.00093347,0.00225082,-0.00142227,-0.00177027,0.00
 106859,0.00052039,-0.00007257,0.00020781,0.00035437,0.00291266,-0.0349
 2783,0.02752162,0.00521008,-0.00026420,0.00775318,0.00066848,-0.000093
 07,0.00046634,-0.00020458,0.00002152,0.00008802,-0.00019857,0.00000220
 ,-0.00014451,0.00002038,0.00006865,-0.00007451,-0.00160073,0.00252777,
 0.00091953,-0.00001302,0.00097072,-0.00036175,0.00015594,-0.00009549,-
 0.00024673,0.00016861,-0.00006618,0.00020968,0.00115150,-0.00022553,-0
 .00079928,-0.00056346,0.00037985,0.00056021,-0.00043476,0.00003572,-0.
 00020373,0.00015047,0.00017240,0.00019858,0.12132999,-0.38027797,-0.03
 497178,-0.16908486,0.54853105,-0.00075097,0.00025774,0.00000724,-0.002
 35712,0.00261423,0.00109037,-0.00103643,-0.00307426,0.00660888,0.00213
 107,0.00114833,0.00162100,-0.00148683,0.03034845,-0.01603242,-0.000349
 67,-0.00933402,-0.07344138,0.02423950,0.02063679,-0.01251950,-0.001508
 92,-0.00291625,-0.00186697,0.03867065,-0.05316413,-0.01666412,0.000985
 90,-0.00028137,-0.00033671,-0.00004708,0.00003138,-0.00011437,-0.00006
 943,-0.00012536,-0.00015370,0.00016262,-0.00039829,-0.00055215,-0.0002
 6334,-0.00002643,0.00021397,-0.00012202,0.00060313,0.00073585,-0.00089
 614,-0.00018658,0.00019422,0.00027123,-0.00792117,0.00771532,-0.005736
 95,0.00237840,-0.00497581,-0.00074461,0.00011886,0.00005159,0.00005031
 ,-0.00002891,-0.00003594,0.00006579,-0.00003747,0.00005559,0.00007764,
 0.00004229,0.00001037,0.00061158,-0.00309098,-0.00177421,0.00042323,0.
 00022127,0.00059691,-0.00028255,0.00026717,0.00012266,-0.00010238,0.00
 049523,0.00032207,-0.00019515,0.00100367,-0.00020652,0.00010177,0.0001
 1647,0.00001195,-0.00007705,-0.00030260,-0.00014411,-0.00015401,-0.000
 06649,-0.00009333,0.05283681,-0.05664934,-0.14018953,-0.09389383,0.050
 53470,0.23940316,-0.00000230,-0.00003488,-0.00027496,-0.00006051,0.001
 34567,0.00035403,0.00317279,0.00511964,-0.00100018,-0.00054536,-0.0010
 1382,0.00178502,-0.00044219,-0.00047052,0.00050621,0.00277600,0.000745
 11,0.00565366,0.00258082,0.00040951,-0.00239952,0.00018038,0.00054520,
 -0.00029726,0.00411267,-0.01075519,0.02377811,-0.00021357,0.00002670,0
 .00013905,-0.00007390,-0.00001743,0.00004577,0.00006069,-0.00002027,0.
 00004141,-0.00004281,-0.00010564,-0.00010978,0.00036745,-0.00076228,0.
 00072663,0.00059402,-0.00009157,-0.00026533,-0.00005768,-0.00008727,-0
 .00014360,-0.00021062,0.00096016,-0.00083691,0.00025721,-0.00045991,0.
 00043652,0.00021288,-0.00006508,-0.00004416,-0.00000400,0.00000452,0.0
 0001509,-0.00002196,-0.00000506,-0.00002254,-0.00003145,-0.00000441,-0
 .00000711,-0.00014182,0.00030986,0.00008396,-0.00001724,-0.00006769,-0
 .00006479,0.00002343,-0.00001982,-0.00001170,0.00000987,-0.00003621,-0
 .00002244,-0.00000796,-0.00023095,-0.00026570,-0.00006025,-0.00003552,
 0.00003365,-0.00004396,-0.00001219,0.00000536,0.00002928,0.00001933,0.
 00001558,-0.08576139,0.00322999,-0.00567694,0.01219132,0.01751426,-0.0
 1098980,0.54911997,0.00009151,-0.00003742,-0.00016931,0.00002505,-0.00
 019558,-0.00227557,0.00465470,0.00285476,-0.00220232,-0.00006176,-0.00
 125930,0.00097960,-0.00086882,-0.00101075,-0.00028790,0.00470803,0.008
 00385,-0.00569921,-0.00302580,-0.00021840,0.00182809,-0.00025572,0.000
 94312,0.00015753,-0.00205249,0.00979160,0.00162759,-0.00034077,0.00014
 062,0.00023651,0.00002310,-0.00000200,0.00003443,0.00005482,0.00000099
 ,0.00005904,0.00018284,0.00035333,0.00030918,0.00007071,0.00024595,-0.
 00023122,0.00023992,-0.00010604,-0.00005715,-0.00004828,0.00003214,-0.
 00000926,0.00010080,-0.00059617,0.00059808,0.00060547,-0.00070095,0.00
 098307,0.00023444,-0.00001777,-0.00001054,-0.00002332,0.00000872,0.000
 01973,-0.00001562,-0.00000050,-0.00002052,-0.00001768,-0.00001331,-0.0
 0000833,-0.00029785,0.00043927,0.00014420,0.00002288,0.00002938,-0.000
 06509,0.00003146,-0.00001300,-0.00003946,0.00002018,-0.00003426,0.0000
 1564,0.00003900,-0.00044801,-0.00019348,-0.00008359,0.00002161,0.00011
 721,-0.00000996,0.00008719,0.00003719,0.00010774,0.00002720,0.00004515
 ,-0.00472550,-0.15974721,0.07721152,0.00844190,-0.05216493,0.02079649,
 -0.04288602,0.54452200,-0.00029138,0.00006095,-0.00003529,-0.00031609,
 0.00037237,-0.00247338,0.00500534,-0.00109123,0.00477467,0.00070141,-0
 .00012533,-0.00004894,-0.00036791,-0.00087523,-0.00027657,0.00334515,-
 0.00027489,-0.00070845,-0.00129083,0.00019726,0.00082216,-0.00029554,-
 0.00002043,-0.00008934,0.01225699,0.02562702,-0.04304964,0.00029236,0.
 00002100,-0.00001591,0.00009512,0.00000291,-0.00002002,-0.00000546,-0.
 00008657,0.00000282,0.00038475,0.00055388,0.00029276,-0.00007503,0.000
 39405,-0.00034678,-0.00014254,0.00009445,0.00001460,-0.00002910,0.0000
 7500,0.00001858,0.00003452,-0.00044536,0.00034749,0.00010963,0.0000382
 0,0.00050912,-0.00023060,0.00007077,0.00003529,0.00000672,-0.00000962,
 -0.00000869,0.00002283,-0.00001426,0.00001771,0.00003761,0.00000979,0.
 00000381,-0.00000655,0.00000844,0.00000133,-0.00000143,0.00004046,-0.0
 0001610,-0.00000974,-0.00000022,0.00000234,0.00000722,0.00000751,0.000
 00300,0.00019898,0.00015489,0.00022378,-0.00000882,0.00004553,0.000086
 07,-0.00003288,0.00000598,-0.00002751,-0.00001254,0.00000500,-0.000010
 99,-0.00031284,0.08120176,-0.15344557,0.00017659,-0.00541251,0.0107546
 7,-0.00946153,0.04428164,0.58069783,-0.00007309,0.00001525,-0.00000509
 ,-0.00008738,0.00007510,0.00005068,0.00003387,-0.00036402,0.00051274,0
 .00010506,0.00016414,-0.00004881,0.00023734,0.00005565,0.00002827,-0.0
 0050722,-0.00104501,0.00042447,0.00022417,0.00012205,-0.00019494,-0.00
 018225,-0.00009039,-0.00015847,0.00100919,-0.00032252,-0.00111054,0.00
 011475,-0.00001374,-0.00003657,0.00001174,-0.00000118,-0.00000456,-0.0
 0000902,-0.00000143,-0.00001172,0.00002752,0.00002610,-0.00000422,-0.0
 0003215,0.00000735,-0.00001345,-0.00005806,0.00004351,0.00000837,0.000
 00082,0.00001866,-0.00000300,-0.00000232,0.00001607,-0.00003568,-0.000
 14658,0.00017626,-0.00014572,-0.00008551,0.00001748,0.00000168,0.00000
 530,-0.00000499,-0.00000207,0.00000795,-0.00000520,0.00000569,0.000009
 91,0.00000478,0.00000281,0.00007951,-0.00009825,-0.00003619,-0.0000043
 7,0.00000103,0.00001031,-0.00001181,0.00000335,0.00000912,-0.00000453,
 0.00000874,-0.00000183,0.00022967,0.00011430,0.00004278,-0.00005720,0.
 00000523,0.00010390,-0.00006463,-0.00001265,-0.00000346,-0.00003230,-0
 .00004791,-0.00006301,-0.00243638,-0.00392868,0.00338854,-0.00139955,0
 .00347395,-0.00016576,-0.24317348,-0.11209809,-0.03746303,0.26383770,-
 0.00002078,0.00001052,0.00005456,0.00003342,0.00015045,-0.00013131,0.0
 0031660,0.00022078,0.00049827,-0.00021825,-0.00043102,0.00017367,-0.00
 032402,-0.00041951,0.00005723,0.00136775,0.00014459,0.00085452,0.00019
 282,0.00019243,-0.00028275,-0.00005959,0.00013492,-0.00080549,0.001832
 40,-0.00015632,-0.00081805,0.00004288,-0.00001416,-0.00003518,0.000004
 57,0.00000352,-0.00001161,-0.00001156,-0.00001184,-0.00000942,0.000009
 17,0.00001304,0.00001315,0.00005371,-0.00005416,0.00007626,0.00008918,
 0.00007674,-0.00008365,0.00003203,-0.00003070,-0.00001118,-0.00003688,
 0.00004952,-0.00005081,0.00014672,0.00000941,0.00019707,-0.00003489,0.
 00000291,0.00001220,0.00000173,-0.00000021,-0.00000507,0.00000071,0.00
 000174,0.00000329,0.00000399,0.00000209,-0.00000002,-0.00003254,0.0000
 2894,0.00000334,-0.00000468,0.00000040,-0.00000997,0.00000808,-0.00000
 698,0.00000378,0.00000528,-0.00000054,-0.00000549,0.00006746,0.0005059
 0,0.00036171,0.00008829,-0.00002785,-0.00004890,0.00000333,-0.00008962
 ,-0.00007329,-0.00006212,0.00003671,0.00000588,-0.02519914,-0.01643069
 ,-0.00390333,0.00191655,-0.00056611,0.00156441,-0.11464203,-0.10136997
 ,-0.01773198,0.12434428,0.11199036,-0.00001652,0.00000918,0.00005184,-
 0.00003900,-0.00018449,0.00022373,-0.00128647,-0.00118609,-0.00006214,
 0.00065589,0.00087866,-0.00067507,0.00008793,0.00015372,-0.00002161,-0
 .00063197,-0.00048462,-0.00021739,-0.00001182,0.00000354,0.00004115,-0
 .00004309,-0.00086038,0.00048704,-0.00109888,0.00097136,-0.00309507,0.
 00006016,-0.00002793,-0.00004122,0.00000574,0.00000322,-0.00001293,-0.
 00002539,0.00000095,-0.00001548,0.00000242,-0.00000546,-0.00000745,-0.
 00008339,0.00018187,-0.00019383,-0.00026771,0.00001914,0.00012597,-0.0
 0000515,0.00003262,0.00003558,-0.00001224,-0.00003625,0.00001941,-0.00
 008791,0.00002703,-0.00015486,-0.00004505,0.00001657,0.00000283,0.0000
 0602,-0.00000017,-0.00000461,0.00000569,-0.00000032,0.00000648,0.00000
 636,-0.00000129,0.00000090,0.00002497,-0.00003268,0.00000988,-0.000002
 79,-0.00000165,0.00000680,-0.00000130,0.00000510,0.00000529,0.00000076
 ,0.00000002,-0.00000185,-0.00006920,0.00014223,-0.00009298,0.00014130,
 0.00002180,-0.00014973,0.00002174,-0.00012852,0.00005664,-0.00021185,-
 0.00004003,-0.00009852,0.02374968,0.00984994,0.00363149,-0.00126646,0.
 00040641,0.00001502,-0.03511651,-0.01577381,-0.04625048,0.03769796,0.0
 1788268,0.04918915,0.00006123,-0.00004826,0.00011868,0.00005348,-0.000
 01240,0.00003041,0.00015984,0.00000536,-0.00029472,-0.00004786,-0.0000
 3625,0.00004016,-0.00007818,-0.00006442,-0.00004494,0.00038903,-0.0002
 8079,0.00004642,-0.00018313,0.00010465,0.00000927,0.00000549,-0.000087
 58,-0.00015782,0.00030041,-0.00086794,0.00046438,-0.00006125,0.0000149
 4,-0.00004925,-0.00001425,0.00001277,-0.00001436,-0.00000827,0.0000144
 9,-0.00003670,-0.00003442,-0.00002278,-0.00000394,0.00001811,0.0000364
 4,-0.00001901,0.00002579,0.00001864,-0.00000074,0.00001331,-0.00001157
 ,0.00001065,-0.00000155,-0.00006092,0.00003120,0.00004077,-0.00003301,
 0.00004288,0.00004278,-0.00003196,0.00003477,-0.00000329,0.00000239,-0
 .00000343,-0.00001493,0.00000767,-0.00000949,-0.00000632,0.00000636,-0
 .00000495,-0.00001420,0.00002016,0.00001173,0.00000021,0.00000223,-0.0
 0000430,0.00000140,-0.00000125,-0.00000063,0.00000224,-0.00000099,0.00
 000101,-0.00008018,0.00019167,0.00012437,0.00007071,-0.00000908,-0.000
 08983,0.00003218,-0.00005960,-0.00001187,-0.00003963,0.00001168,-0.000
 00044,0.00125731,-0.00475379,0.00010978,0.00028879,-0.00181593,0.00087
 805,-0.20197699,0.14278089,0.03127416,-0.01817710,0.01855098,0.0039770
 2,0.21585008,0.00006294,-0.00003063,0.00026323,0.00004956,-0.00022671,
 -0.00038492,-0.00047881,-0.00050496,0.00078644,0.00014859,0.00009144,-
 0.00036477,-0.00013007,-0.00028080,-0.00010566,0.00106058,0.00101285,-
 0.00116957,-0.00090279,0.00000712,0.00052576,-0.00008756,-0.00007203,-
 0.00010571,-0.00049204,0.00137780,-0.00319654,0.00006125,-0.00001057,-
 0.00013388,0.00000863,0.00002883,-0.00004830,-0.00006352,0.00000640,-0
 .00005340,0.00003429,0.00007910,0.00004921,-0.00003044,0.00009729,-0.0
 0006511,-0.00012184,0.00004927,0.00002621,0.00000833,0.00001635,0.0000
 2652,0.00003063,-0.00021249,0.00019789,0.00006731,0.00001335,0.0001428
 8,-0.00008189,0.00000406,0.00004337,-0.00000021,0.00000091,-0.00001235
 ,-0.00000120,0.00001031,0.00000547,0.00001088,0.00000596,0.00000027,-0
 .00000543,-0.00000065,0.00000637,0.00000108,0.00001742,-0.00000206,-0.
 00000177,-0.00000037,0.00000034,0.00000278,0.00000250,0.00000261,0.000
 01063,0.00013473,0.00011230,0.00002703,0.00002740,-0.00002335,0.000009
 49,-0.00001105,-0.00001615,-0.00002513,0.00000904,0.00000742,0.0193878
 9,-0.01830882,-0.00462465,-0.00051478,-0.00486543,0.00457438,0.1385709
 0,-0.16144577,-0.02548535,-0.01218575,0.01147276,0.00214328,-0.1498439
 8,0.17705170,-0.00006682,0.00004143,0.00000426,0.00000268,0.00021386,0
 .00038266,-0.00038303,0.00001057,0.00004767,0.00005236,0.00014094,-0.0
 0001075,0.00013043,-0.00002340,0.00012922,-0.00022380,-0.00069369,0.00
 179484,0.00076387,0.00005490,-0.00063511,0.00000774,-0.00025002,-0.000
 18817,0.00159904,-0.00009053,-0.00051360,0.00002892,-0.00008809,-0.000
 03359,-0.00000688,-0.00002045,0.00001250,0.00001321,0.00001769,0.00002
 473,-0.00002145,-0.00007108,-0.00005491,0.00001149,-0.00006326,0.00003
 620,-0.00000427,0.00003183,-0.00000900,0.00000973,-0.00000750,-0.00002
 240,-0.00003811,0.00028653,-0.00027214,-0.00006815,0.00007015,-0.00010
 432,-0.00000631,0.00001132,-0.00002146,0.00000786,0.00000285,-0.000007
 78,0.00001663,0.00000796,0.00001055,0.00000039,-0.00001228,0.00000552,
 0.00004781,-0.00002657,-0.00000422,-0.00001045,-0.00001088,-0.00000292
 ,-0.00000490,-0.00000119,0.00000370,-0.00000411,0.00000048,-0.00000522
 ,-0.00007396,0.00024427,0.00012290,0.00003419,-0.00002421,-0.00008095,
 0.00002476,-0.00005448,-0.00002001,-0.00001914,-0.00001679,-0.00001226
 ,-0.02154620,0.01063148,0.00487580,0.00080064,0.00597525,-0.00249718,0
 .03626377,-0.02849734,-0.05827554,-0.00337353,0.00284674,-0.00053336,-
 0.03613195,0.02637463,0.05555919,0.00000746,-0.00000813,0.00011067,0.0
 0003514,-0.00001986,0.00009496,-0.00001235,-0.00001360,0.00018553,-0.0
 0003806,-0.00006652,0.00004139,0.00014849,0.00002390,-0.00004040,-0.00
 016973,-0.00030832,0.00004595,-0.00006795,0.00000341,-0.00003001,-0.00
 004888,0.00008578,-0.00020284,0.00169017,-0.00109748,0.00124929,0.0000
 1283,-0.00003008,-0.00007707,-0.00000492,-0.00000032,-0.00000577,-0.00
 001716,0.00003653,-0.00001647,-0.00002239,-0.00001507,-0.00001672,-0.0
 0000226,-0.00002842,0.00003920,0.00002028,0.00002472,-0.00001178,-0.00
 000952,0.00000091,-0.00001585,0.00003454,0.00000873,-0.00000047,-0.000
 08686,0.00009150,-0.00006102,-0.00002329,-0.00000287,0.00000901,0.0000
 0151,-0.00000010,-0.00000591,0.00000361,0.00000831,0.00000258,0.000001
 98,-0.00000076,0.00000348,0.00005365,-0.00005131,-0.00001461,-0.000000
 29,0.00000512,0.00000343,-0.00001221,0.00000138,0.00000046,-0.00000384
 ,0.00000492,0.00000229,0.00002356,0.00008487,0.00010939,-0.00001846,-0
 .00000860,0.00002581,-0.00000328,0.00000851,-0.00001974,0.00003404,-0.
 00000466,0.00000748,-0.00422899,-0.00226039,0.00468002,-0.00046684,0.0
 0189130,-0.00027613,-0.04279935,0.00437581,-0.00359553,0.00061041,-0.0
 0846544,-0.02612093,0.00212840,0.00541442,0.02216755,0.04323055,0.0000
 7549,-0.00002311,0.00001987,0.00009151,0.00000211,0.00063978,-0.001185
 48,0.00002588,-0.00034739,-0.00027926,0.00001033,-0.00002246,0.0000028
 7,0.00013985,0.00000830,-0.00037477,-0.00031243,0.00024539,0.00024533,
 -0.00003119,-0.00031825,0.00014464,0.00011599,-0.00000892,-0.00127928,
 -0.00369171,0.00568036,-0.00005606,0.00000221,-0.00001633,-0.00002685,
 -0.00000025,0.00000812,-0.00000097,0.00002450,-0.00000471,-0.00009307,
 -0.00013829,-0.00007959,0.00002070,-0.00016283,0.00015444,0.00005442,-
 0.00001217,-0.00001371,0.00001248,-0.00001538,-0.00000779,0.00002088,-
 0.00001999,0.00000750,0.00000138,-0.00002014,-0.00006718,0.00003751,-0
 .00001872,-0.00000285,-0.00000243,0.00000020,0.00000253,-0.00000864,0.
 00000200,-0.00000490,-0.00000831,0.00000110,-0.00000035,-0.00000495,0.
 00002068,0.00000679,-0.00000413,-0.00001198,0.00000037,0.00000548,-0.0
 0000225,0.00000135,0.00000087,-0.00000289,-0.00000381,-0.00001007,-0.0
 0012553,-0.00007973,-0.00003440,-0.00001548,0.00004872,-0.00001089,0.0
 0003854,0.00000306,0.00004889,0.00000289,0.00001842,0.00221273,0.01185
 724,0.02486951,-0.00071801,0.00016552,-0.00014973,0.00302290,-0.088120
 37,-0.10169589,0.00152652,-0.00543806,-0.01398566,-0.00373883,-0.00554
 632,-0.01701110,0.00031182,0.09130004,-0.00002825,0.00001907,-0.000047
 04,-0.00002593,-0.00001839,-0.00057851,0.00072577,-0.00016743,0.000659
 24,0.00014057,-0.00010147,-0.00001634,-0.00015238,-0.00026984,-0.00008
 127,0.00085994,0.00128920,-0.00031087,-0.00046515,-0.00006684,0.000357
 57,-0.00006015,0.00007344,0.00004190,-0.00055971,0.00313295,-0.0030916
 7,-0.00001402,0.00002392,0.00005237,0.00002042,-0.00000312,0.00000308,
 0.00001104,-0.00002304,0.00001038,0.00007731,0.00009405,0.00009131,-0.
 00001029,0.00010729,-0.00010203,-0.00003288,0.00001284,0.00001112,-0.0
 0001535,0.00001995,0.00000440,-0.00000634,0.00000337,0.00002418,0.0000
 9547,-0.00010678,0.00021463,0.00001185,0.00001053,-0.00000208,-0.00000
 208,0.00000051,0.00000216,0.00000138,-0.00000246,-0.00000020,0.0000022
 2,-0.00000247,-0.00000072,-0.00003669,0.00006631,0.00002750,0.00000226
 ,0.00000941,-0.00000906,0.00000273,-0.00000115,-0.00000666,0.00000329,
 -0.00000537,0.00000236,0.00001802,-0.00001364,0.00001324,-0.00000038,0
 .00001475,0.00001092,-0.00000302,0.00000046,0.00000453,-0.00000690,0.0
 0000277,-0.00000567,-0.00045834,-0.00980243,-0.01998470,0.00077815,-0.
 00237275,0.00206713,-0.00287303,-0.09394139,-0.29350884,0.00059430,-0.
 00059127,-0.00228061,-0.00032659,0.00050319,0.00029515,0.00173274,0.10
 210583,0.31613309\\0.00000012,-0.00000300,-0.00000504,-0.00000300,0.00
 000805,0.00000523,0.00000107,-0.00000035,-0.00000413,-0.00000255,-0.00
 000317,-0.00000289,-0.00000623,-0.00000379,-0.00000108,0.00000108,-0.0
 0000321,0.00000152,-0.00000061,-0.00000248,-0.00000163,0.00000380,-0.0
 0000003,-0.00000113,0.00000185,-0.00000410,-0.00000256,0.00000550,0.00
 000280,0.00000586,0.00000107,0.00000293,0.00000411,-0.00000037,0.00000
 186,0.00000423,-0.00000009,0.00000196,0.00000090,0.00000079,0.00000052
 ,-0.00000044,0.00000150,0.00000060,-0.00000295,-0.00000138,-0.00000214
 ,-0.00000067,-0.00000462,0.00000037,-0.00000079,0.00000322,0.00000207,
 -0.00000005,-0.00000459,0.00000568,0.00000197,0.00000331,0.00000364,0.
 00000266,0.00000320,0.00000285,0.00000407,0.00000300,0.00000483,0.0000
 0409,-0.00000082,-0.00000829,-0.00000203,-0.00000298,0.00000035,0.0000
 0180,-0.00000399,-0.00000088,0.00000035,-0.00000255,-0.00000119,-0.000
 00059,0.00000344,0.00000427,0.00000140,0.00000394,-0.00000149,-0.00000
 294,0.00000364,-0.00000194,-0.00000584,0.00000127,-0.00000073,-0.00000
 401,-0.00000087,-0.00000149,0.00000389,-0.00000406,0.00000319,0.000002
 34,-0.00000009,-0.00000270,-0.00000204,-0.00000105,-0.00000241,-0.0000
 0210,0.00000026,-0.00000089,-0.00000126,-0.00000225,-0.00000168,-0.000
 00025\\\@


 I (ERNEST RUTHERFORD) CAME INTO THE ROOM, WHICH WAS HALF DARK, AND PRESENTLY
 SPOTTED LORD KELVIN IN THE AUDIENCE AND REALIZED I WAS IN TROUBLE AT
 THE LAST PART OF MY SPEECH DEALING THE AGE OF THE EARTH, WHERE MY VIEWS
 CONFLICTED WITH HIS.  TO MY RELIEF KELVIN FELL FAST ASLEEP, BUT AS I CAME
 TO THE IMPORTANT POINT, I SAW THE OLD BIRD SIT UP AND COCK A BALEFUL GLANCE
 AT ME! THEN A SUDDEN INSPIRATION CAME AND I SAID LORD KELVIN HAD LIMITED
 THE AGE OF THE EARTH PROVIDED NO NEW SOURCE WAS DISCOVERED. THAT
 PROPHETIC UTTERANCE REFERS TO WHAT WE ARE NOW CONSIDERING TONIGHT, RADIUM!
 BEHOLD!  THE OLD BOY BEAMED UPON ME.
 Job cpu time:       0 days  6 hours 41 minutes  8.1 seconds.
 File lengths (MBytes):  RWF=    766 Int=      0 D2E=      0 Chk=     19 Scr=      1
 Normal termination of Gaussian 09 at Sun Jan  8 05:26:32 2017.
