 Entering Gaussian System, Link 0=g09
 Initial command:
 /share/apps//g09/l1.exe "/scratch/Gau-10451.inp" -scrdir="/scratch/"
 Entering Link 1 = /share/apps//g09/l1.exe PID=     10452.
  
 Copyright (c) 1988,1990,1992,1993,1995,1998,2003,2009,2013,
            Gaussian, Inc.  All Rights Reserved.
  
 This is part of the Gaussian(R) 09 program.  It is based on
 the Gaussian(R) 03 system (copyright 2003, Gaussian, Inc.),
 the Gaussian(R) 98 system (copyright 1998, Gaussian, Inc.),
 the Gaussian(R) 94 system (copyright 1995, Gaussian, Inc.),
 the Gaussian 92(TM) system (copyright 1992, Gaussian, Inc.),
 the Gaussian 90(TM) system (copyright 1990, Gaussian, Inc.),
 the Gaussian 88(TM) system (copyright 1988, Gaussian, Inc.),
 the Gaussian 86(TM) system (copyright 1986, Carnegie Mellon
 University), and the Gaussian 82(TM) system (copyright 1983,
 Carnegie Mellon University). Gaussian is a federally registered
 trademark of Gaussian, Inc.
  
 This software contains proprietary and confidential information,
 including trade secrets, belonging to Gaussian, Inc.
  
 This software is provided under written license and may be
 used, copied, transmitted, or stored only in accord with that
 written license.
  
 The following legend is applicable only to US Government
 contracts under FAR:
  
                    RESTRICTED RIGHTS LEGEND
  
 Use, reproduction and disclosure by the US Government is
 subject to restrictions as set forth in subparagraphs (a)
 and (c) of the Commercial Computer Software - Restricted
 Rights clause in FAR 52.227-19.
  
 Gaussian, Inc.
 340 Quinnipiac St., Bldg. 40, Wallingford CT 06492
  
  
 ---------------------------------------------------------------
 Warning -- This program may not be used in any manner that
 competes with the business of Gaussian, Inc. or will provide
 assistance to any competitor of Gaussian, Inc.  The licensee
 of this program is prohibited from giving any competitor of
 Gaussian, Inc. access to this program.  By using this program,
 the user acknowledges that Gaussian, Inc. is engaged in the
 business of creating and licensing software in the field of
 computational chemistry and represents and warrants to the
 licensee that it is not a competitor of Gaussian, Inc. and that
 it will not use this program in any manner prohibited above.
 ---------------------------------------------------------------
  

 Cite this work as:
 Gaussian 09, Revision D.01,
 M. J. Frisch, G. W. Trucks, H. B. Schlegel, G. E. Scuseria, 
 M. A. Robb, J. R. Cheeseman, G. Scalmani, V. Barone, B. Mennucci, 
 G. A. Petersson, H. Nakatsuji, M. Caricato, X. Li, H. P. Hratchian, 
 A. F. Izmaylov, J. Bloino, G. Zheng, J. L. Sonnenberg, M. Hada, 
 M. Ehara, K. Toyota, R. Fukuda, J. Hasegawa, M. Ishida, T. Nakajima, 
 Y. Honda, O. Kitao, H. Nakai, T. Vreven, J. A. Montgomery, Jr., 
 J. E. Peralta, F. Ogliaro, M. Bearpark, J. J. Heyd, E. Brothers, 
 K. N. Kudin, V. N. Staroverov, T. Keith, R. Kobayashi, J. Normand, 
 K. Raghavachari, A. Rendell, J. C. Burant, S. S. Iyengar, J. Tomasi, 
 M. Cossi, N. Rega, J. M. Millam, M. Klene, J. E. Knox, J. B. Cross, 
 V. Bakken, C. Adamo, J. Jaramillo, R. Gomperts, R. E. Stratmann, 
 O. Yazyev, A. J. Austin, R. Cammi, C. Pomelli, J. W. Ochterski, 
 R. L. Martin, K. Morokuma, V. G. Zakrzewski, G. A. Voth, 
 P. Salvador, J. J. Dannenberg, S. Dapprich, A. D. Daniels, 
 O. Farkas, J. B. Foresman, J. V. Ortiz, J. Cioslowski, 
 and D. J. Fox, Gaussian, Inc., Wallingford CT, 2013.
 
 ******************************************
 Gaussian 09:  EM64L-G09RevD.01 24-Apr-2013
                10-Jan-2017 
 ******************************************
 %nproc=20
 Will use up to   20 processors via shared memory.
 %mem=100GB
 %chk=Ac-4_cGalMe.chk
 -------------------------------------------------------------------
 #P PBE1PBE/6-311+G(d,p) opt optcyc=999 freq EmpiricalDispersion=GD3
 -------------------------------------------------------------------
 1/6=999,14=-1,18=20,19=15,26=3,38=1/1,3;
 2/9=110,12=2,17=6,18=5,40=1/2;
 3/5=4,6=6,7=111,11=2,16=1,25=1,30=1,71=1,74=-13,124=31/1,2,3;
 4//1;
 5/5=2,38=5/2;
 6/7=2,8=2,9=2,10=2,28=1/1;
 7//1,2,3,16;
 1/6=999,14=-1,18=20,19=15,26=3/3(2);
 2/9=110/2;
 99//99;
 2/9=110/2;
 3/5=4,6=6,7=111,11=2,16=1,25=1,30=1,71=1,74=-13,124=31/1,2,3;
 4/5=5,16=3,69=1/1;
 5/5=2,38=5/2;
 7//1,2,3,16;
 1/6=999,14=-1,18=20,19=15,26=3/3(-5);
 2/9=110/2;
 6/7=2,8=2,9=2,10=2,19=2,28=1/1;
 99/9=1/99;
 Leave Link    1 at Tue Jan 10 01:36:01 2017, MaxMem= 13421772800 cpu:         1.4
 (Enter /share/apps//g09/l101.exe)
 -------
 disacch
 -------
 Symbolic Z-matrix:
 Charge =  1 Multiplicity = 1
 C                    -1.92387   0.60311   0.47701 
 C                    -1.22964  -0.14786   1.63014 
 C                     0.10837   0.43339   2.11691 
 C                     1.10593   0.64522   0.96328 
 C                     1.07742  -0.58632   0.02272 
 C                    -0.3166   -1.2118   -0.1139 
 O                    -0.97622  -1.45582   1.03354 
 O                     0.79698   1.79223   0.1709 
 O                    -0.10738   1.68742   2.77906 
 O                    -1.40359  -0.09203  -0.73228 
 H                    -1.64476   1.66087   0.42969 
 H                    -3.00804   0.44932   0.46647 
 H                    -1.90322  -0.31531   2.4784 
 H                     0.51769  -0.29941   2.83027 
 H                     2.1286    0.71916   1.36905 
 H                     1.46264  -0.26859  -0.9602 
 H                    -0.38575  -2.0597   -0.80606 
 O                     1.83708  -1.64743   0.57933 
 C                    -1.13938   0.70912  -1.93836 
 H                    -2.10444   1.12077  -2.2521 
 H                    -0.40385   1.48718  -1.7111 
 H                    -0.7775    0.00154  -2.69073 
 C                     2.7905   -2.24309  -0.32146 
 H                     2.29518  -2.71199  -1.18706 
 H                     3.52085  -1.49544  -0.66908 
 H                     3.30477  -3.01693   0.25769 
 C                     1.55916   2.97037   0.50158 
 H                     1.31915   3.33015   1.51151 
 H                     2.63892   2.76703   0.42082 
 H                     1.27983   3.73027  -0.23679 
 C                    -0.39225   1.59321   4.14722 
 O                    -0.52244   0.52836   4.70524 
 C                    -0.48268   2.95838   4.75679 
 H                    -1.01713   3.65413   4.09937 
 H                     0.53378   3.35251   4.90221 
 H                    -0.97552   2.8889    5.73062 
 
 NAtoms=     36 NQM=       36 NQMF=       0 NMMI=      0 NMMIF=      0
                NMic=       0 NMicF=      0.
                    Isotopes and Nuclear Properties:
 (Nuclear quadrupole moments (NQMom) in fm**2, nuclear magnetic moments (NMagM)
  in nuclear magnetons)

  Atom         1           2           3           4           5           6           7           8           9          10
 IAtWgt=          12          12          12          12          12          12          16          16          16          16
 AtmWgt=  12.0000000  12.0000000  12.0000000  12.0000000  12.0000000  12.0000000  15.9949146  15.9949146  15.9949146  15.9949146
 NucSpn=           0           0           0           0           0           0           0           0           0           0
 AtZEff=   0.0000000   0.0000000   0.0000000   0.0000000   0.0000000   0.0000000   0.0000000   0.0000000   0.0000000   0.0000000
 NQMom=    0.0000000   0.0000000   0.0000000   0.0000000   0.0000000   0.0000000   0.0000000   0.0000000   0.0000000   0.0000000
 NMagM=    0.0000000   0.0000000   0.0000000   0.0000000   0.0000000   0.0000000   0.0000000   0.0000000   0.0000000   0.0000000
 AtZNuc=   6.0000000   6.0000000   6.0000000   6.0000000   6.0000000   6.0000000   8.0000000   8.0000000   8.0000000   8.0000000

  Atom        11          12          13          14          15          16          17          18          19          20
 IAtWgt=           1           1           1           1           1           1           1          16          12           1
 AtmWgt=   1.0078250   1.0078250   1.0078250   1.0078250   1.0078250   1.0078250   1.0078250  15.9949146  12.0000000   1.0078250
 NucSpn=           1           1           1           1           1           1           1           0           0           1
 AtZEff=   0.0000000   0.0000000   0.0000000   0.0000000   0.0000000   0.0000000   0.0000000   0.0000000   0.0000000   0.0000000
 NQMom=    0.0000000   0.0000000   0.0000000   0.0000000   0.0000000   0.0000000   0.0000000   0.0000000   0.0000000   0.0000000
 NMagM=    2.7928460   2.7928460   2.7928460   2.7928460   2.7928460   2.7928460   2.7928460   0.0000000   0.0000000   2.7928460
 AtZNuc=   1.0000000   1.0000000   1.0000000   1.0000000   1.0000000   1.0000000   1.0000000   8.0000000   6.0000000   1.0000000

  Atom        21          22          23          24          25          26          27          28          29          30
 IAtWgt=           1           1          12           1           1           1          12           1           1           1
 AtmWgt=   1.0078250   1.0078250  12.0000000   1.0078250   1.0078250   1.0078250  12.0000000   1.0078250   1.0078250   1.0078250
 NucSpn=           1           1           0           1           1           1           0           1           1           1
 AtZEff=   0.0000000   0.0000000   0.0000000   0.0000000   0.0000000   0.0000000   0.0000000   0.0000000   0.0000000   0.0000000
 NQMom=    0.0000000   0.0000000   0.0000000   0.0000000   0.0000000   0.0000000   0.0000000   0.0000000   0.0000000   0.0000000
 NMagM=    2.7928460   2.7928460   0.0000000   2.7928460   2.7928460   2.7928460   0.0000000   2.7928460   2.7928460   2.7928460
 AtZNuc=   1.0000000   1.0000000   6.0000000   1.0000000   1.0000000   1.0000000   6.0000000   1.0000000   1.0000000   1.0000000

  Atom        31          32          33          34          35          36
 IAtWgt=          12          16          12           1           1           1
 AtmWgt=  12.0000000  15.9949146  12.0000000   1.0078250   1.0078250   1.0078250
 NucSpn=           0           0           0           1           1           1
 AtZEff=   0.0000000   0.0000000   0.0000000   0.0000000   0.0000000   0.0000000
 NQMom=    0.0000000   0.0000000   0.0000000   0.0000000   0.0000000   0.0000000
 NMagM=    0.0000000   0.0000000   0.0000000   2.7928460   2.7928460   2.7928460
 AtZNuc=   6.0000000   8.0000000   6.0000000   1.0000000   1.0000000   1.0000000
 Leave Link  101 at Tue Jan 10 01:36:01 2017, MaxMem= 13421772800 cpu:         4.6
 (Enter /share/apps//g09/l103.exe)

 GradGradGradGradGradGradGradGradGradGradGradGradGradGradGradGradGradGrad
 Berny optimization.
 Initialization pass.
                           ----------------------------
                           !    Initial Parameters    !
                           ! (Angstroms and Degrees)  !
 --------------------------                            --------------------------
 ! Name  Definition              Value          Derivative Info.                !
 --------------------------------------------------------------------------------
 ! R1    R(1,2)                  1.5413         estimate D2E/DX2                !
 ! R2    R(1,10)                 1.4887         estimate D2E/DX2                !
 ! R3    R(1,11)                 1.095          estimate D2E/DX2                !
 ! R4    R(1,12)                 1.0951         estimate D2E/DX2                !
 ! R5    R(2,3)                  1.5379         estimate D2E/DX2                !
 ! R6    R(2,7)                  1.4598         estimate D2E/DX2                !
 ! R7    R(2,13)                 1.096          estimate D2E/DX2                !
 ! R8    R(3,4)                  1.5398         estimate D2E/DX2                !
 ! R9    R(3,9)                  1.4344         estimate D2E/DX2                !
 ! R10   R(3,14)                 1.1016         estimate D2E/DX2                !
 ! R11   R(4,5)                  1.5499         estimate D2E/DX2                !
 ! R12   R(4,8)                  1.4279         estimate D2E/DX2                !
 ! R13   R(4,15)                 1.1027         estimate D2E/DX2                !
 ! R14   R(5,6)                  1.534          estimate D2E/DX2                !
 ! R15   R(5,16)                 1.1025         estimate D2E/DX2                !
 ! R16   R(5,18)                 1.4188         estimate D2E/DX2                !
 ! R17   R(6,7)                  1.3458         estimate D2E/DX2                !
 ! R18   R(6,10)                 1.6786         estimate D2E/DX2                !
 ! R19   R(6,17)                 1.0967         estimate D2E/DX2                !
 ! R20   R(8,27)                 1.4416         estimate D2E/DX2                !
 ! R21   R(9,31)                 1.4007         estimate D2E/DX2                !
 ! R22   R(10,19)                1.4718         estimate D2E/DX2                !
 ! R23   R(18,23)                1.4406         estimate D2E/DX2                !
 ! R24   R(19,20)                1.0951         estimate D2E/DX2                !
 ! R25   R(19,21)                1.0945         estimate D2E/DX2                !
 ! R26   R(19,22)                1.0944         estimate D2E/DX2                !
 ! R27   R(23,24)                1.102          estimate D2E/DX2                !
 ! R28   R(23,25)                1.1015         estimate D2E/DX2                !
 ! R29   R(23,26)                1.0949         estimate D2E/DX2                !
 ! R30   R(27,28)                1.0986         estimate D2E/DX2                !
 ! R31   R(27,29)                1.1017         estimate D2E/DX2                !
 ! R32   R(27,30)                1.0957         estimate D2E/DX2                !
 ! R33   R(31,32)                1.2092         estimate D2E/DX2                !
 ! R34   R(31,33)                1.4978         estimate D2E/DX2                !
 ! R35   R(33,34)                1.0963         estimate D2E/DX2                !
 ! R36   R(33,35)                1.0999         estimate D2E/DX2                !
 ! R37   R(33,36)                1.0936         estimate D2E/DX2                !
 ! A1    A(2,1,10)             102.8739         estimate D2E/DX2                !
 ! A2    A(2,1,11)             112.8417         estimate D2E/DX2                !
 ! A3    A(2,1,12)             112.6256         estimate D2E/DX2                !
 ! A4    A(10,1,11)            109.0793         estimate D2E/DX2                !
 ! A5    A(10,1,12)            105.8195         estimate D2E/DX2                !
 ! A6    A(11,1,12)            112.8057         estimate D2E/DX2                !
 ! A7    A(1,2,3)              116.3935         estimate D2E/DX2                !
 ! A8    A(1,2,7)              102.0631         estimate D2E/DX2                !
 ! A9    A(1,2,13)             112.1263         estimate D2E/DX2                !
 ! A10   A(3,2,7)              108.4798         estimate D2E/DX2                !
 ! A11   A(3,2,13)             110.3325         estimate D2E/DX2                !
 ! A12   A(7,2,13)             106.6248         estimate D2E/DX2                !
 ! A13   A(2,3,4)              112.242          estimate D2E/DX2                !
 ! A14   A(2,3,9)              110.2228         estimate D2E/DX2                !
 ! A15   A(2,3,14)             106.0715         estimate D2E/DX2                !
 ! A16   A(4,3,9)              108.846          estimate D2E/DX2                !
 ! A17   A(4,3,14)             109.632          estimate D2E/DX2                !
 ! A18   A(9,3,14)             109.7874         estimate D2E/DX2                !
 ! A19   A(3,4,5)              109.4777         estimate D2E/DX2                !
 ! A20   A(3,4,8)              112.7118         estimate D2E/DX2                !
 ! A21   A(3,4,15)             109.5342         estimate D2E/DX2                !
 ! A22   A(5,4,8)              107.3102         estimate D2E/DX2                !
 ! A23   A(5,4,15)             107.0765         estimate D2E/DX2                !
 ! A24   A(8,4,15)             110.5481         estimate D2E/DX2                !
 ! A25   A(4,5,6)              113.2507         estimate D2E/DX2                !
 ! A26   A(4,5,16)             107.7952         estimate D2E/DX2                !
 ! A27   A(4,5,18)             110.2649         estimate D2E/DX2                !
 ! A28   A(6,5,16)             110.8321         estimate D2E/DX2                !
 ! A29   A(6,5,18)             102.5072         estimate D2E/DX2                !
 ! A30   A(16,5,18)            112.2242         estimate D2E/DX2                !
 ! A31   A(5,6,7)              116.3205         estimate D2E/DX2                !
 ! A32   A(5,6,10)             110.4424         estimate D2E/DX2                !
 ! A33   A(5,6,17)             115.3876         estimate D2E/DX2                !
 ! A34   A(7,6,10)              96.7567         estimate D2E/DX2                !
 ! A35   A(7,6,17)             111.5308         estimate D2E/DX2                !
 ! A36   A(10,6,17)            104.0286         estimate D2E/DX2                !
 ! A37   A(2,7,6)              105.7283         estimate D2E/DX2                !
 ! A38   A(4,8,27)             114.5056         estimate D2E/DX2                !
 ! A39   A(3,9,31)             115.0043         estimate D2E/DX2                !
 ! A40   A(1,10,6)             103.8008         estimate D2E/DX2                !
 ! A41   A(1,10,19)            118.3076         estimate D2E/DX2                !
 ! A42   A(6,10,19)            123.2798         estimate D2E/DX2                !
 ! A43   A(5,18,23)            114.728          estimate D2E/DX2                !
 ! A44   A(10,19,20)           106.3309         estimate D2E/DX2                !
 ! A45   A(10,19,21)           109.72           estimate D2E/DX2                !
 ! A46   A(10,19,22)           105.7104         estimate D2E/DX2                !
 ! A47   A(20,19,21)           112.6111         estimate D2E/DX2                !
 ! A48   A(20,19,22)           109.7238         estimate D2E/DX2                !
 ! A49   A(21,19,22)           112.3421         estimate D2E/DX2                !
 ! A50   A(18,23,24)           111.6918         estimate D2E/DX2                !
 ! A51   A(18,23,25)           110.8253         estimate D2E/DX2                !
 ! A52   A(18,23,26)           105.8046         estimate D2E/DX2                !
 ! A53   A(24,23,25)           109.8127         estimate D2E/DX2                !
 ! A54   A(24,23,26)           109.0184         estimate D2E/DX2                !
 ! A55   A(25,23,26)           109.5874         estimate D2E/DX2                !
 ! A56   A(8,27,28)            111.2836         estimate D2E/DX2                !
 ! A57   A(8,27,29)            110.5188         estimate D2E/DX2                !
 ! A58   A(8,27,30)            106.1054         estimate D2E/DX2                !
 ! A59   A(28,27,29)           109.995          estimate D2E/DX2                !
 ! A60   A(28,27,30)           109.6726         estimate D2E/DX2                !
 ! A61   A(29,27,30)           109.1745         estimate D2E/DX2                !
 ! A62   A(9,31,32)            122.1326         estimate D2E/DX2                !
 ! A63   A(9,31,33)            110.3957         estimate D2E/DX2                !
 ! A64   A(32,31,33)           127.4675         estimate D2E/DX2                !
 ! A65   A(31,33,34)           111.3344         estimate D2E/DX2                !
 ! A66   A(31,33,35)           108.9429         estimate D2E/DX2                !
 ! A67   A(31,33,36)           109.3713         estimate D2E/DX2                !
 ! A68   A(34,33,35)           107.602          estimate D2E/DX2                !
 ! A69   A(34,33,36)           110.7689         estimate D2E/DX2                !
 ! A70   A(35,33,36)           108.7539         estimate D2E/DX2                !
 ! D1    D(10,1,2,3)            92.0006         estimate D2E/DX2                !
 ! D2    D(10,1,2,7)           -25.8975         estimate D2E/DX2                !
 ! D3    D(10,1,2,13)         -139.6455         estimate D2E/DX2                !
 ! D4    D(11,1,2,3)           -25.3934         estimate D2E/DX2                !
 ! D5    D(11,1,2,7)          -143.2915         estimate D2E/DX2                !
 ! D6    D(11,1,2,13)          102.9604         estimate D2E/DX2                !
 ! D7    D(12,1,2,3)          -154.5331         estimate D2E/DX2                !
 ! D8    D(12,1,2,7)            87.5687         estimate D2E/DX2                !
 ! D9    D(12,1,2,13)          -26.1793         estimate D2E/DX2                !
 ! D10   D(2,1,10,6)            -2.983          estimate D2E/DX2                !
 ! D11   D(2,1,10,19)         -143.706          estimate D2E/DX2                !
 ! D12   D(11,1,10,6)          117.043          estimate D2E/DX2                !
 ! D13   D(11,1,10,19)         -23.6801         estimate D2E/DX2                !
 ! D14   D(12,1,10,6)         -121.3371         estimate D2E/DX2                !
 ! D15   D(12,1,10,19)          97.9399         estimate D2E/DX2                !
 ! D16   D(1,2,3,4)            -52.562          estimate D2E/DX2                !
 ! D17   D(1,2,3,9)             68.9427         estimate D2E/DX2                !
 ! D18   D(1,2,3,14)          -172.269          estimate D2E/DX2                !
 ! D19   D(7,2,3,4)             61.7589         estimate D2E/DX2                !
 ! D20   D(7,2,3,9)           -176.7364         estimate D2E/DX2                !
 ! D21   D(7,2,3,14)           -57.9482         estimate D2E/DX2                !
 ! D22   D(13,2,3,4)           178.2171         estimate D2E/DX2                !
 ! D23   D(13,2,3,9)           -60.2782         estimate D2E/DX2                !
 ! D24   D(13,2,3,14)           58.51           estimate D2E/DX2                !
 ! D25   D(1,2,7,6)             53.3338         estimate D2E/DX2                !
 ! D26   D(3,2,7,6)            -70.0818         estimate D2E/DX2                !
 ! D27   D(13,2,7,6)           171.0937         estimate D2E/DX2                !
 ! D28   D(2,3,4,5)            -43.3428         estimate D2E/DX2                !
 ! D29   D(2,3,4,8)             76.0088         estimate D2E/DX2                !
 ! D30   D(2,3,4,15)          -160.4707         estimate D2E/DX2                !
 ! D31   D(9,3,4,5)           -165.6325         estimate D2E/DX2                !
 ! D32   D(9,3,4,8)            -46.2808         estimate D2E/DX2                !
 ! D33   D(9,3,4,15)            77.2396         estimate D2E/DX2                !
 ! D34   D(14,3,4,5)            74.2656         estimate D2E/DX2                !
 ! D35   D(14,3,4,8)          -166.3827         estimate D2E/DX2                !
 ! D36   D(14,3,4,15)          -42.8623         estimate D2E/DX2                !
 ! D37   D(2,3,9,31)            87.3507         estimate D2E/DX2                !
 ! D38   D(4,3,9,31)          -149.1468         estimate D2E/DX2                !
 ! D39   D(14,3,9,31)          -29.1411         estimate D2E/DX2                !
 ! D40   D(3,4,5,6)             34.9786         estimate D2E/DX2                !
 ! D41   D(3,4,5,16)           157.9636         estimate D2E/DX2                !
 ! D42   D(3,4,5,18)           -79.2194         estimate D2E/DX2                !
 ! D43   D(8,4,5,6)            -87.6499         estimate D2E/DX2                !
 ! D44   D(8,4,5,16)            35.3352         estimate D2E/DX2                !
 ! D45   D(8,4,5,18)           158.1521         estimate D2E/DX2                !
 ! D46   D(15,4,5,6)           153.6425         estimate D2E/DX2                !
 ! D47   D(15,4,5,16)          -83.3724         estimate D2E/DX2                !
 ! D48   D(15,4,5,18)           39.4445         estimate D2E/DX2                !
 ! D49   D(3,4,8,27)            98.423          estimate D2E/DX2                !
 ! D50   D(5,4,8,27)          -140.9756         estimate D2E/DX2                !
 ! D51   D(15,4,8,27)          -24.533          estimate D2E/DX2                !
 ! D52   D(4,5,6,7)            -49.0872         estimate D2E/DX2                !
 ! D53   D(4,5,6,10)            59.8463         estimate D2E/DX2                !
 ! D54   D(4,5,6,17)           177.4428         estimate D2E/DX2                !
 ! D55   D(16,5,6,7)          -170.3778         estimate D2E/DX2                !
 ! D56   D(16,5,6,10)          -61.4443         estimate D2E/DX2                !
 ! D57   D(16,5,6,17)           56.1522         estimate D2E/DX2                !
 ! D58   D(18,5,6,7)            69.6929         estimate D2E/DX2                !
 ! D59   D(18,5,6,10)          178.6263         estimate D2E/DX2                !
 ! D60   D(18,5,6,17)          -63.7772         estimate D2E/DX2                !
 ! D61   D(4,5,18,23)         -130.2865         estimate D2E/DX2                !
 ! D62   D(6,5,18,23)          108.8541         estimate D2E/DX2                !
 ! D63   D(16,5,18,23)         -10.1023         estimate D2E/DX2                !
 ! D64   D(5,6,7,2)             65.033          estimate D2E/DX2                !
 ! D65   D(10,6,7,2)           -51.7746         estimate D2E/DX2                !
 ! D66   D(17,6,7,2)          -159.7829         estimate D2E/DX2                !
 ! D67   D(5,6,10,1)           -88.2076         estimate D2E/DX2                !
 ! D68   D(5,6,10,19)           49.9794         estimate D2E/DX2                !
 ! D69   D(7,6,10,1)            33.1691         estimate D2E/DX2                !
 ! D70   D(7,6,10,19)          171.356          estimate D2E/DX2                !
 ! D71   D(17,6,10,1)          147.4073         estimate D2E/DX2                !
 ! D72   D(17,6,10,19)         -74.4058         estimate D2E/DX2                !
 ! D73   D(4,8,27,28)          -65.5928         estimate D2E/DX2                !
 ! D74   D(4,8,27,29)           56.929          estimate D2E/DX2                !
 ! D75   D(4,8,27,30)          175.1636         estimate D2E/DX2                !
 ! D76   D(3,9,31,32)           -4.1295         estimate D2E/DX2                !
 ! D77   D(3,9,31,33)          175.1795         estimate D2E/DX2                !
 ! D78   D(1,10,19,20)         -62.958          estimate D2E/DX2                !
 ! D79   D(1,10,19,21)          59.0898         estimate D2E/DX2                !
 ! D80   D(1,10,19,22)        -179.5568         estimate D2E/DX2                !
 ! D81   D(6,10,19,20)         164.3829         estimate D2E/DX2                !
 ! D82   D(6,10,19,21)         -73.5693         estimate D2E/DX2                !
 ! D83   D(6,10,19,22)          47.7841         estimate D2E/DX2                !
 ! D84   D(5,18,23,24)         -62.8446         estimate D2E/DX2                !
 ! D85   D(5,18,23,25)          59.9466         estimate D2E/DX2                !
 ! D86   D(5,18,23,26)         178.6604         estimate D2E/DX2                !
 ! D87   D(9,31,33,34)          41.2843         estimate D2E/DX2                !
 ! D88   D(9,31,33,35)         -77.2243         estimate D2E/DX2                !
 ! D89   D(9,31,33,36)         164.0261         estimate D2E/DX2                !
 ! D90   D(32,31,33,34)       -139.4531         estimate D2E/DX2                !
 ! D91   D(32,31,33,35)        102.0384         estimate D2E/DX2                !
 ! D92   D(32,31,33,36)        -16.7112         estimate D2E/DX2                !
 --------------------------------------------------------------------------------
 Trust Radius=3.00D-01 FncErr=1.00D-07 GrdErr=1.00D-06
 Number of steps in this run=    216 maximum allowed number of steps=    216.
 GradGradGradGradGradGradGradGradGradGradGradGradGradGradGradGradGradGrad

 Leave Link  103 at Tue Jan 10 01:36:01 2017, MaxMem= 13421772800 cpu:         0.3
 (Enter /share/apps//g09/l202.exe)
                          Input orientation:                          
 ---------------------------------------------------------------------
 Center     Atomic      Atomic             Coordinates (Angstroms)
 Number     Number       Type             X           Y           Z
 ---------------------------------------------------------------------
      1          6           0       -1.923870    0.603110    0.477010
      2          6           0       -1.229640   -0.147860    1.630140
      3          6           0        0.108370    0.433390    2.116910
      4          6           0        1.105930    0.645220    0.963280
      5          6           0        1.077420   -0.586320    0.022720
      6          6           0       -0.316600   -1.211800   -0.113900
      7          8           0       -0.976220   -1.455820    1.033540
      8          8           0        0.796980    1.792230    0.170900
      9          8           0       -0.107380    1.687420    2.779060
     10          8           0       -1.403590   -0.092030   -0.732280
     11          1           0       -1.644760    1.660870    0.429690
     12          1           0       -3.008040    0.449320    0.466470
     13          1           0       -1.903220   -0.315310    2.478400
     14          1           0        0.517690   -0.299410    2.830270
     15          1           0        2.128600    0.719160    1.369050
     16          1           0        1.462640   -0.268590   -0.960200
     17          1           0       -0.385750   -2.059700   -0.806060
     18          8           0        1.837080   -1.647430    0.579330
     19          6           0       -1.139380    0.709120   -1.938360
     20          1           0       -2.104440    1.120770   -2.252100
     21          1           0       -0.403850    1.487180   -1.711100
     22          1           0       -0.777500    0.001540   -2.690730
     23          6           0        2.790500   -2.243090   -0.321460
     24          1           0        2.295180   -2.711990   -1.187060
     25          1           0        3.520850   -1.495440   -0.669080
     26          1           0        3.304770   -3.016930    0.257690
     27          6           0        1.559160    2.970370    0.501580
     28          1           0        1.319150    3.330150    1.511510
     29          1           0        2.638920    2.767030    0.420820
     30          1           0        1.279830    3.730270   -0.236790
     31          6           0       -0.392250    1.593210    4.147220
     32          8           0       -0.522440    0.528360    4.705240
     33          6           0       -0.482680    2.958380    4.756790
     34          1           0       -1.017130    3.654130    4.099370
     35          1           0        0.533780    3.352510    4.902210
     36          1           0       -0.975520    2.888900    5.730620
 ---------------------------------------------------------------------
                    Distance matrix (angstroms):
                    1          2          3          4          5
     1  C    0.000000
     2  C    1.541305   0.000000
     3  C    2.616883   1.537878   0.000000
     4  C    3.068863   2.555106   1.539760   0.000000
     5  C    3.260194   2.845799   2.522796   1.549889   0.000000
     6  C    2.495273   2.237697   2.804240   2.575351   1.534008
     7  O    2.333872   1.459765   2.432928   2.958826   2.448515
     8  O    2.985085   3.162360   2.471353   1.427917   2.399605
     9  O    3.126467   2.438798   1.434427   2.419785   3.764446
    10  O    1.488722   2.369473   3.268023   3.117074   2.640030
    11  H    1.094988   2.210183   2.725231   2.980362   3.553273
    12  H    1.095074   2.207591   3.526502   4.148487   4.237977
    13  H    2.202154   1.096036   2.176631   3.503311   3.871437
    14  H    3.509073   2.125192   1.101554   2.173477   2.877143
    15  H    4.151110   3.478170   2.173083   1.102710   2.149852
    16  H    3.780725   3.738022   3.434447   2.159182   1.102487
    17  H    3.332062   3.209728   3.873423   3.559813   2.235753
    18  O    4.384079   3.571790   3.111656   2.436851   1.418750
    19  C    2.541786   3.671070   4.251837   3.669471   3.230821
    20  H    2.783634   4.176899   4.945429   4.568511   4.267692
    21  H    2.807110   3.810403   4.003312   3.184437   3.082158
    22  H    3.422079   4.347030   4.907613   4.160940   3.339030
    23  C    5.564503   4.935611   4.505887   3.581992   2.407902
    24  H    5.617775   5.189965   5.058831   4.160425   2.732212
    25  H    5.946630   5.446975   4.809069   3.616471   2.697302
    26  H    6.363291   5.538597   5.057507   4.329445   3.305172
    27  C    4.211416   4.332945   3.339214   2.413484   3.620970
    28  H    4.361664   4.313578   3.197455   2.748612   4.196864
    29  H    5.050224   4.992474   3.837484   2.673275   3.720446
    30  H    4.533468   4.982244   4.216828   3.314807   4.329118
    31  C    4.098365   3.173049   2.391226   3.644270   4.890990
    32  O    4.455056   3.227018   2.665782   4.082586   5.072283
    33  C    5.093215   4.470192   3.700524   4.718592   6.116390
    34  H    4.822073   4.538434   3.945892   4.836939   6.244008
    35  H    5.760351   5.105750   4.057109   4.813725   6.294390
    36  H    5.807290   5.108857   4.501472   5.665162   6.990840
                    6          7          8          9         10
     6  C    0.000000
     7  O    1.345832   0.000000
     8  O    3.216422   3.799765   0.000000
     9  O    4.101032   3.698876   2.762490   0.000000
    10  O    1.678638   2.271715   3.034580   4.144407   0.000000
    11  H    3.211189   3.244278   2.458927   2.807807   2.116836
    12  H    3.215587   2.842432   4.045855   3.910856   2.074686
    13  H    3.168766   2.060998   4.130056   2.706726   3.256985
    14  H    3.193217   2.607161   3.394880   2.083465   4.052911
    15  H    3.450616   3.805655   2.088122   2.815184   4.189270
    16  H    2.184391   3.366386   2.443250   4.502555   2.880694
    17  H    1.096723   2.024217   4.146163   5.193408   2.216566
    18  O    2.304057   2.856165   3.616612   4.443080   3.826425
    19  C    2.774086   3.680459   3.061306   4.927083   1.471828
    20  H    3.634440   4.325174   3.839274   5.442602   2.066864
    21  H    3.137380   4.064715   2.253214   4.504390   2.109851
    22  H    2.885251   4.004195   3.724847   5.762799   2.058220
    23  C    3.280352   4.079706   4.527731   5.784448   4.731408
    24  H    3.197442   4.148625   4.937272   6.391965   4.555427
    25  H    3.887763   4.808755   4.351300   5.931637   5.120905
    26  H    4.063360   4.622324   5.424441   6.334902   5.630607
    27  C    4.624699   5.128576   1.441625   3.100037   4.436056
    28  H    5.093814   5.329417   2.105966   2.517982   4.915203
    29  H    4.985189   5.592596   2.098914   3.777435   5.083872
    30  H    5.194973   5.796467   2.038469   3.897812   4.696406
    31  C    5.102053   4.396886   4.155117   1.400674   5.260453
    32  O    5.127830   4.198127   4.888607   2.286015   5.543278
    33  C    6.414172   5.795803   4.901818   2.380673   6.346886
    34  H    6.474539   5.959243   4.710684   2.537481   6.126003
    35  H    6.835015   6.353483   4.988892   2.773333   6.882277
    36  H    7.169960   6.398371   5.937586   3.302867   7.130096
                   11         12         13         14         15
    11  H    0.000000
    12  H    1.824209   0.000000
    13  H    2.858199   2.419328   0.000000
    14  H    3.779110   4.310327   2.446400   0.000000
    15  H    4.000932   5.222311   4.307709   2.401599   0.000000
    16  H    3.912869   4.747395   4.811982   3.906603   2.616211
    17  H    4.117624   3.845896   4.016627   4.139773   4.333027
    18  O    4.805252   5.280557   4.401233   2.936780   2.511850
    19  C    2.601711   3.056566   4.597899   5.148091   4.649597
    20  H    2.773988   2.942441   4.947772   5.892619   5.585038
    21  H    2.480526   3.549756   4.800936   4.966405   4.060847
    22  H    3.639030   3.891494   5.299768   5.678867   5.044027
    23  C    5.956229   6.441504   5.795391   4.344762   3.474314
    24  H    6.104008   6.391571   6.066814   5.011881   4.281850
    25  H    6.152489   6.906372   6.381212   4.763917   3.316140
    26  H    6.812433   7.204863   6.273234   4.665929   4.071470
    27  C    3.461945   5.216919   5.166390   4.147158   2.478853
    28  H    3.569537   5.302439   4.960637   3.944005   2.737293
    29  H    4.424204   6.104263   5.862209   4.439383   2.313728
    30  H    3.644151   5.444726   5.819861   5.121136   3.516520
    31  C    3.923441   4.658193   2.951345   2.478782   3.851867
    32  O    4.563169   4.914430   2.752662   2.298388   4.265511
    33  C    4.664521   5.574914   4.233916   3.914769   4.828009
    34  H    4.222980   5.237604   4.378259   4.426823   5.095519
    35  H    5.254628   6.375640   5.026602   4.198775   4.686278
    36  H    5.482317   6.147680   4.658811   4.561472   5.776385
                   16         17         18         19         20
    16  H    0.000000
    17  H    2.578445   0.000000
    18  O    2.100371   2.651461   0.000000
    19  C    2.946731   3.084870   4.555371   0.000000
    20  H    4.040221   3.893625   5.587084   1.095093   0.000000
    21  H    2.670274   3.660571   4.482590   1.094545   1.821797
    22  H    2.843577   2.820312   4.499825   1.094389   1.790486
    23  C    2.463707   3.218234   1.440570   5.174347   6.245267
    24  H    2.591292   2.785324   2.112647   4.905573   5.931359
    25  H    2.413740   3.949516   2.101597   5.309322   6.402687
    26  H    3.525631   3.958256   2.033002   6.201335   7.258041
    27  C    3.554853   5.549252   4.626809   4.283536   4.942240
    28  H    4.368165   6.109689   5.090532   4.981543   5.546809
    29  H    3.536360   5.826765   4.489491   4.906758   5.688070
    30  H    4.067877   6.051610   5.467745   4.227915   4.724854
    31  C    5.743923   6.154574   5.310508   6.194683   6.641242
    32  O    6.055814   6.090252   5.227287   6.674632   7.159487
    33  C    6.847012   7.492384   6.636712   7.093339   7.425056
    34  H    6.865584   7.557098   6.974506   6.718795   6.923968
    35  H    6.952913   7.919716   6.736860   7.521993   7.945126
    36  H    7.789829   8.219772   7.417870   7.974431   8.253761
                   21         22         23         24         25
    21  H    0.000000
    22  H    1.818355   0.000000
    23  C    5.103909   4.835538   0.000000
    24  H    5.019204   4.366421   1.102031   0.000000
    25  H    5.038363   4.980344   1.101468   1.802932   0.000000
    26  H    6.157678   5.871054   1.094859   1.788732   1.794582
    27  C    3.308960   4.946188   5.419756   5.973479   5.016187
    28  H    4.092735   5.756249   6.048608   6.688974   5.734874
    29  H    3.929574   5.385314   5.067076   5.720410   4.487130
    30  H    3.168568   4.915064   6.162006   6.590650   5.702376
    31  C    5.859291   7.031315   6.694490   7.362851   6.931728
    32  O    6.488668   7.419095   6.627535   7.290957   7.023338
    33  C    6.633570   8.018440   7.972303   8.671733   8.081140
    34  H    6.231641   7.713903   8.295721   8.913205   8.357598
    35  H    6.935018   8.402452   7.980617   8.772679   7.966460
    36  H    7.594131   8.904785   8.783388   9.482708   8.966378
                   26         27         28         29         30
    26  H    0.000000
    27  C    6.241346   0.000000
    28  H    6.767583   1.098638   0.000000
    29  H    5.824445   1.101704   1.802360   0.000000
    30  H    7.061841   1.095748   1.793933   1.790924   0.000000
    31  C    7.074588   4.358355   3.590657   4.944886   5.155814
    32  O    6.855459   5.288405   4.630485   5.775993   6.158252
    33  C    8.383973   4.719753   3.730502   5.346180   5.351457
    34  H    8.828384   4.477599   3.501455   5.261690   4.907556
    35  H    8.355819   4.534642   3.480539   4.985705   5.206593
    36  H    9.118809   5.811549   4.822976   6.424407   6.434632
                   31         32         33         34         35
    31  C    0.000000
    32  O    1.209232   0.000000
    33  C    1.497813   2.430892   0.000000
    34  H    2.154102   3.222148   1.096315   0.000000
    35  H    2.126659   3.021626   1.099853   1.772244   0.000000
    36  H    2.127480   2.613204   1.093647   1.802300   1.783027
                   36
    36  H    0.000000
 Stoichiometry    C11H19O6(1+)
 Framework group  C1[X(C11H19O6)]
 Deg. of freedom   102
 Full point group                 C1      NOp   1
 Largest Abelian subgroup         C1      NOp   1
 Largest concise Abelian subgroup C1      NOp   1
                         Standard orientation:                         
 ---------------------------------------------------------------------
 Center     Atomic      Atomic             Coordinates (Angstroms)
 Number     Number       Type             X           Y           Z
 ---------------------------------------------------------------------
      1          6           0        0.106321    1.871489   -1.009486
      2          6           0       -0.324236    0.442891   -1.395946
      3          6           0       -0.786145   -0.466767   -0.245194
      4          6           0        0.243374   -0.528560    0.898105
      5          6           0        1.667665   -0.671391    0.303842
      6          6           0        1.852305    0.088825   -1.015690
      7          8           0        0.907627   -0.106515   -1.954140
      8          8           0        0.237401    0.646424    1.709478
      9          8           0       -2.036883   -0.002881    0.282108
     10          8           0        1.572090    1.728685   -0.791721
     11          1           0       -0.360942    2.220175   -0.082620
     12          1           0       -0.004991    2.582773   -1.834636
     13          1           0       -1.063945    0.439223   -2.204718
     14          1           0       -0.914669   -1.469767   -0.682107
     15          1           0        0.057832   -1.424695    1.513318
     16          1           0        2.386150   -0.319986    1.062638
     17          1           0        2.860684    0.047624   -1.444962
     18          8           0        1.907366   -2.016006   -0.080095
     19          6           0        2.197931    2.515550    0.283195
     20          1           0        2.061592    3.568162    0.013661
     21          1           0        1.735421    2.263520    1.242671
     22          1           0        3.262152    2.261925    0.254995
     23          6           0        3.145321   -2.569853    0.405667
     24          1           0        4.018323   -2.031133    0.003026
     25          1           0        3.174384   -2.557764    1.506685
     26          1           0        3.169175   -3.604784    0.049206
     27          6           0       -0.517044    0.525121    2.931926
     28          1           0       -1.588555    0.393818    2.727893
     29          1           0       -0.142384   -0.317339    3.534954
     30          1           0       -0.357968    1.459753    3.481309
     31          6           0       -3.174020   -0.499921   -0.367321
     32          8           0       -3.098667   -1.204470   -1.347206
     33          6           0       -4.416578   -0.045902    0.335075
     34          1           0       -4.338088    1.002170    0.646989
     35          1           0       -4.556478   -0.653067    1.241416
     36          1           0       -5.278529   -0.191415   -0.322139
 ---------------------------------------------------------------------
 Rotational constants (GHZ):      0.6348435      0.3459180      0.3326142
 Leave Link  202 at Tue Jan 10 01:36:02 2017, MaxMem= 13421772800 cpu:         0.6
 (Enter /share/apps//g09/l301.exe)
 Standard basis: 6-311+G(d,p) (5D, 7F)
 Ernie: Thresh=  0.10000D-02 Tol=  0.10000D-05 Strict=F.
 There are   505 symmetry adapted cartesian basis functions of A   symmetry.
 There are   488 symmetry adapted basis functions of A   symmetry.
   488 basis functions,   764 primitive gaussians,   505 cartesian basis functions
    66 alpha electrons       66 beta electrons
       nuclear repulsion energy      1436.2723015066 Hartrees.
 IExCor= 1009 DFT=T Ex+Corr=PBE1PBE ExCW=0 ScaHFX=  0.250000
 ScaDFX=  0.750000  0.750000  1.000000  1.000000 ScalE2=  1.000000  1.000000
 IRadAn=      0 IRanWt=     -1 IRanGd=            0 ICorTp=0 IEmpDi=131
 NAtoms=   36 NActive=   36 NUniq=   36 SFac= 1.00D+00 NAtFMM=   60 NAOKFM=F Big=F
 Integral buffers will be    131072 words long.
 Raffenetti 2 integral format.
 Two-electron integral symmetry is turned on.
 R6Disp:  Grimme-D3 Dispersion energy=       -0.0258286795 Hartrees.
 Nuclear repulsion after empirical dispersion term =     1436.2464728271 Hartrees.
 Leave Link  301 at Tue Jan 10 01:36:02 2017, MaxMem= 13421772800 cpu:         1.3
 (Enter /share/apps//g09/l302.exe)
 NPDir=0 NMtPBC=     1 NCelOv=     1 NCel=       1 NClECP=     1 NCelD=      1
         NCelK=      1 NCelE2=     1 NClLst=     1 CellRange=     0.0.
 One-electron integrals computed using PRISM.
 NBasis=   488 RedAO= T EigKep=  2.07D-06  NBF=   488
 NBsUse=   488 1.00D-06 EigRej= -1.00D+00 NBFU=   488
 Precomputing XC quadrature grid using
 IXCGrd= 4 IRadAn=           0 IRanWt=          -1 IRanGd=           0 AccXCQ= 0.00D+00.
 Generated NRdTot=       0 NPtTot=           0 NUsed=           0 NTot=          32
 NSgBfM=   504   504   505   505   505 MxSgAt=    36 MxSgA2=    36.
 Leave Link  302 at Tue Jan 10 01:36:03 2017, MaxMem= 13421772800 cpu:        11.7
 (Enter /share/apps//g09/l303.exe)
 DipDrv:  MaxL=1.
 Leave Link  303 at Tue Jan 10 01:36:03 2017, MaxMem= 13421772800 cpu:         8.1
 (Enter /share/apps//g09/l401.exe)
 ExpMin= 4.38D-02 ExpMax= 8.59D+03 ExpMxC= 1.30D+03 IAcc=2 IRadAn=         4 AccDes= 0.00D+00
 Harris functional with IExCor= 1009 and IRadAn=       4 diagonalized for initial guess.
 HarFok:  IExCor= 1009 AccDes= 0.00D+00 IRadAn=         4 IDoV= 1 UseB2=F ITyADJ=14
 ICtDFT=  3500011 ScaDFX=  1.000000  1.000000  1.000000  1.000000
 FoFCou: FMM=F IPFlag=           0 FMFlag=      100000 FMFlg1=           0
         NFxFlg=           0 DoJE=T BraDBF=F KetDBF=T FulRan=T
         wScrn=  0.000000 ICntrl=     500 IOpCl=  0 I1Cent=   200000004 NGrid=           0
         NMat0=    1 NMatS0=      1 NMatT0=    0 NMatD0=    1 NMtDS0=    0 NMtDT0=    0
 Petite list used in FoFCou.
 Harris En= -881.096503585032    
 JPrj=0 DoOrth=F DoCkMO=F.
 Leave Link  401 at Tue Jan 10 01:36:05 2017, MaxMem= 13421772800 cpu:        24.4
 (Enter /share/apps//g09/l502.exe)
 Closed shell SCF:
 Using DIIS extrapolation, IDIIS=  1040.
 Integral symmetry usage will be decided dynamically.
 Keep R1 ints in memory in canonical form, NReq=7183787934.
 IVT=      797493 IEndB=      797493 NGot= 13421772800 MDV=  6302761722
 LenX=  6302761722 LenY=  6302506192
 Requested convergence on RMS density matrix=1.00D-08 within 128 cycles.
 Requested convergence on MAX density matrix=1.00D-06.
 Requested convergence on             energy=1.00D-06.
 No special actions if energy rises.
 FoFCou: FMM=F IPFlag=           0 FMFlag=           0 FMFlg1=           0
         NFxFlg=           0 DoJE=F BraDBF=F KetDBF=F FulRan=T
         wScrn=  0.000000 ICntrl=     600 IOpCl=  0 I1Cent=           0 NGrid=           0
         NMat0=    1 NMatS0= 119316 NMatT0=    0 NMatD0=    1 NMtDS0=    0 NMtDT0=    0
 Symmetry not used in FoFCou.

 Cycle   1  Pass 1  IDiag  1:
 E= -880.624100810939    
 DIIS: error= 1.49D-02 at cycle   1 NSaved=   1.
 NSaved= 1 IEnMin= 1 EnMin= -880.624100810939     IErMin= 1 ErrMin= 1.49D-02
 ErrMax= 1.49D-02  0.00D+00 EMaxC= 1.00D-01 BMatC= 3.97D-01 BMatP= 3.97D-01
 IDIUse=3 WtCom= 8.51D-01 WtEn= 1.49D-01
 Coeff-Com:  0.100D+01
 Coeff-En:   0.100D+01
 Coeff:      0.100D+01
 Gap=     0.276 Goal=   None    Shift=    0.000
 GapD=    0.276 DampG=1.000 DampE=0.500 DampFc=0.5000 IDamp=-1.
 Damping current iteration by 5.00D-01
 RMSDP=7.42D-03 MaxDP=5.68D-01              OVMax= 2.26D-01

 Cycle   2  Pass 1  IDiag  1:
 E= -880.727739898553     Delta-E=       -0.103639087613 Rises=F Damp=T
 DIIS: error= 7.99D-03 at cycle   2 NSaved=   2.
 NSaved= 2 IEnMin= 2 EnMin= -880.727739898553     IErMin= 2 ErrMin= 7.99D-03
 ErrMax= 7.99D-03  0.00D+00 EMaxC= 1.00D-01 BMatC= 5.41D-02 BMatP= 3.97D-01
 IDIUse=3 WtCom= 9.20D-01 WtEn= 7.99D-02
 Coeff-Com:  0.118D+00 0.882D+00
 Coeff-En:   0.234D+00 0.766D+00
 Coeff:      0.127D+00 0.873D+00
 Gap=     0.294 Goal=   None    Shift=    0.000
 RMSDP=5.31D-03 MaxDP=1.21D+00 DE=-1.04D-01 OVMax= 1.60D-01

 Cycle   3  Pass 1  IDiag  1:
 E= -880.867460195001     Delta-E=       -0.139720296448 Rises=F Damp=F
 DIIS: error= 1.19D-02 at cycle   3 NSaved=   3.
 NSaved= 3 IEnMin= 3 EnMin= -880.867460195001     IErMin= 2 ErrMin= 7.99D-03
 ErrMax= 1.19D-02  0.00D+00 EMaxC= 1.00D-01 BMatC= 6.16D-02 BMatP= 5.41D-02
 IDIUse=2 WtCom= 0.00D+00 WtEn= 1.00D+00
 Coeff-En:   0.000D+00 0.000D+00 0.100D+01
 Coeff:      0.000D+00 0.000D+00 0.100D+01
 Gap=     0.248 Goal=   None    Shift=    0.000
 RMSDP=4.14D-03 MaxDP=6.00D-01 DE=-1.40D-01 OVMax= 2.05D-01

 Cycle   4  Pass 1  IDiag  1:
 E= -880.683149516617     Delta-E=        0.184310678384 Rises=F Damp=F
 DIIS: error= 2.69D-02 at cycle   4 NSaved=   4.
 NSaved= 4 IEnMin= 3 EnMin= -880.867460195001     IErMin= 2 ErrMin= 7.99D-03
 ErrMax= 2.69D-02  0.00D+00 EMaxC= 1.00D-01 BMatC= 3.11D-01 BMatP= 5.41D-02
 IDIUse=2 WtCom= 0.00D+00 WtEn= 1.00D+00
 Coeff-En:   0.000D+00 0.000D+00 0.781D+00 0.219D+00
 Coeff:      0.000D+00 0.000D+00 0.781D+00 0.219D+00
 Gap=     0.234 Goal=   None    Shift=    0.000
 RMSDP=2.62D-03 MaxDP=4.41D-01 DE= 1.84D-01 OVMax= 8.98D-02

 Cycle   5  Pass 1  IDiag  1:
 E= -880.897867581992     Delta-E=       -0.214718065375 Rises=F Damp=F
 DIIS: error= 6.66D-03 at cycle   5 NSaved=   5.
 NSaved= 5 IEnMin= 5 EnMin= -880.897867581992     IErMin= 5 ErrMin= 6.66D-03
 ErrMax= 6.66D-03  0.00D+00 EMaxC= 1.00D-01 BMatC= 2.14D-02 BMatP= 5.41D-02
 IDIUse=3 WtCom= 9.33D-01 WtEn= 6.66D-02
 Coeff-Com:  0.493D-02 0.763D-02 0.343D+00-0.229D-01 0.667D+00
 Coeff-En:   0.000D+00 0.000D+00 0.301D+00 0.000D+00 0.699D+00
 Coeff:      0.460D-02 0.712D-02 0.340D+00-0.214D-01 0.669D+00
 Gap=     0.259 Goal=   None    Shift=    0.000
 RMSDP=9.39D-04 MaxDP=1.69D-01 DE=-2.15D-01 OVMax= 2.24D-02

 Cycle   6  Pass 1  IDiag  1:
 E= -880.913357034559     Delta-E=       -0.015489452566 Rises=F Damp=F
 DIIS: error= 5.63D-04 at cycle   6 NSaved=   6.
 NSaved= 6 IEnMin= 6 EnMin= -880.913357034559     IErMin= 6 ErrMin= 5.63D-04
 ErrMax= 5.63D-04  0.00D+00 EMaxC= 1.00D-01 BMatC= 2.47D-04 BMatP= 2.14D-02
 IDIUse=3 WtCom= 9.94D-01 WtEn= 5.63D-03
 Coeff-Com: -0.619D-03 0.459D-02 0.140D+00-0.490D-01 0.426D+00 0.479D+00
 Coeff-En:   0.000D+00 0.000D+00 0.000D+00 0.000D+00 0.000D+00 0.100D+01
 Coeff:     -0.616D-03 0.457D-02 0.139D+00-0.487D-01 0.424D+00 0.482D+00
 Gap=     0.251 Goal=   None    Shift=    0.000
 RMSDP=1.13D-04 MaxDP=1.73D-02 DE=-1.55D-02 OVMax= 2.08D-03

 Cycle   7  Pass 1  IDiag  1:
 E= -880.913524732383     Delta-E=       -0.000167697825 Rises=F Damp=F
 DIIS: error= 1.03D-04 at cycle   7 NSaved=   7.
 NSaved= 7 IEnMin= 7 EnMin= -880.913524732383     IErMin= 7 ErrMin= 1.03D-04
 ErrMax= 1.03D-04  0.00D+00 EMaxC= 1.00D-01 BMatC= 1.07D-05 BMatP= 2.47D-04
 IDIUse=3 WtCom= 9.99D-01 WtEn= 1.03D-03
 Coeff-Com: -0.700D-03 0.189D-02 0.553D-01-0.269D-01 0.192D+00 0.246D+00
 Coeff-Com:  0.532D+00
 Coeff-En:   0.000D+00 0.000D+00 0.000D+00 0.000D+00 0.000D+00 0.000D+00
 Coeff-En:   0.100D+01
 Coeff:     -0.699D-03 0.189D-02 0.553D-01-0.269D-01 0.192D+00 0.246D+00
 Coeff:      0.532D+00
 Gap=     0.251 Goal=   None    Shift=    0.000
 RMSDP=2.52D-05 MaxDP=2.92D-03 DE=-1.68D-04 OVMax= 3.78D-04

 Cycle   8  Pass 1  IDiag  1:
 E= -880.913532027851     Delta-E=       -0.000007295468 Rises=F Damp=F
 DIIS: error= 3.93D-05 at cycle   8 NSaved=   8.
 NSaved= 8 IEnMin= 8 EnMin= -880.913532027851     IErMin= 8 ErrMin= 3.93D-05
 ErrMax= 3.93D-05  0.00D+00 EMaxC= 1.00D-01 BMatC= 1.09D-06 BMatP= 1.07D-05
 IDIUse=1 WtCom= 1.00D+00 WtEn= 0.00D+00
 Coeff-Com:  0.788D-04-0.320D-03 0.710D-02-0.464D-02 0.259D-01 0.340D-01
 Coeff-Com:  0.253D+00 0.685D+00
 Coeff:      0.788D-04-0.320D-03 0.710D-02-0.464D-02 0.259D-01 0.340D-01
 Coeff:      0.253D+00 0.685D+00
 Gap=     0.251 Goal=   None    Shift=    0.000
 RMSDP=7.97D-06 MaxDP=1.29D-03 DE=-7.30D-06 OVMax= 1.71D-04

 Cycle   9  Pass 1  IDiag  1:
 E= -880.913532842840     Delta-E=       -0.000000814989 Rises=F Damp=F
 DIIS: error= 8.84D-06 at cycle   9 NSaved=   9.
 NSaved= 9 IEnMin= 9 EnMin= -880.913532842840     IErMin= 9 ErrMin= 8.84D-06
 ErrMax= 8.84D-06  0.00D+00 EMaxC= 1.00D-01 BMatC= 5.01D-08 BMatP= 1.09D-06
 IDIUse=1 WtCom= 1.00D+00 WtEn= 0.00D+00
 Coeff-Com:  0.818D-04-0.305D-03 0.109D-02-0.934D-03 0.385D-02 0.398D-02
 Coeff-Com:  0.920D-01 0.317D+00 0.583D+00
 Coeff:      0.818D-04-0.305D-03 0.109D-02-0.934D-03 0.385D-02 0.398D-02
 Coeff:      0.920D-01 0.317D+00 0.583D+00
 Gap=     0.251 Goal=   None    Shift=    0.000
 RMSDP=3.56D-06 MaxDP=5.64D-04 DE=-8.15D-07 OVMax= 3.50D-05

 Cycle  10  Pass 1  IDiag  1:
 E= -880.913532880719     Delta-E=       -0.000000037879 Rises=F Damp=F
 DIIS: error= 2.14D-06 at cycle  10 NSaved=  10.
 NSaved=10 IEnMin=10 EnMin= -880.913532880719     IErMin=10 ErrMin= 2.14D-06
 ErrMax= 2.14D-06  0.00D+00 EMaxC= 1.00D-01 BMatC= 5.49D-09 BMatP= 5.01D-08
 IDIUse=1 WtCom= 1.00D+00 WtEn= 0.00D+00
 Coeff-Com:  0.154D-04-0.608D-04-0.428D-03 0.564D-04-0.121D-02-0.233D-02
 Coeff-Com:  0.104D-01 0.606D-01 0.271D+00 0.662D+00
 Coeff:      0.154D-04-0.608D-04-0.428D-03 0.564D-04-0.121D-02-0.233D-02
 Coeff:      0.104D-01 0.606D-01 0.271D+00 0.662D+00
 Gap=     0.251 Goal=   None    Shift=    0.000
 RMSDP=1.05D-06 MaxDP=1.36D-04 DE=-3.79D-08 OVMax= 1.20D-05

 Cycle  11  Pass 1  IDiag  1:
 E= -880.913532885074     Delta-E=       -0.000000004356 Rises=F Damp=F
 DIIS: error= 5.89D-07 at cycle  11 NSaved=  11.
 NSaved=11 IEnMin=11 EnMin= -880.913532885074     IErMin=11 ErrMin= 5.89D-07
 ErrMax= 5.89D-07  0.00D+00 EMaxC= 1.00D-01 BMatC= 4.88D-10 BMatP= 5.49D-09
 IDIUse=1 WtCom= 1.00D+00 WtEn= 0.00D+00
 Coeff-Com: -0.191D-05 0.194D-05-0.350D-03 0.116D-03-0.102D-02-0.163D-02
 Coeff-Com: -0.329D-02 0.347D-02 0.796D-01 0.304D+00 0.619D+00
 Coeff:     -0.191D-05 0.194D-05-0.350D-03 0.116D-03-0.102D-02-0.163D-02
 Coeff:     -0.329D-02 0.347D-02 0.796D-01 0.304D+00 0.619D+00
 Gap=     0.251 Goal=   None    Shift=    0.000
 RMSDP=2.42D-07 MaxDP=3.31D-05 DE=-4.36D-09 OVMax= 3.96D-06

 Cycle  12  Pass 1  IDiag  1:
 E= -880.913532885421     Delta-E=       -0.000000000347 Rises=F Damp=F
 DIIS: error= 2.06D-07 at cycle  12 NSaved=  12.
 NSaved=12 IEnMin=12 EnMin= -880.913532885421     IErMin=12 ErrMin= 2.06D-07
 ErrMax= 2.06D-07  0.00D+00 EMaxC= 1.00D-01 BMatC= 6.09D-11 BMatP= 4.88D-10
 IDIUse=1 WtCom= 1.00D+00 WtEn= 0.00D+00
 Coeff-Com: -0.440D-05 0.105D-04-0.122D-03 0.402D-04-0.324D-03-0.486D-03
 Coeff-Com: -0.262D-02-0.434D-02 0.115D-01 0.826D-01 0.306D+00 0.608D+00
 Coeff:     -0.440D-05 0.105D-04-0.122D-03 0.402D-04-0.324D-03-0.486D-03
 Coeff:     -0.262D-02-0.434D-02 0.115D-01 0.826D-01 0.306D+00 0.608D+00
 Gap=     0.251 Goal=   None    Shift=    0.000
 RMSDP=6.89D-08 MaxDP=9.03D-06 DE=-3.47D-10 OVMax= 1.41D-06

 Cycle  13  Pass 1  IDiag  1:
 E= -880.913532885486     Delta-E=       -0.000000000065 Rises=F Damp=F
 DIIS: error= 6.10D-08 at cycle  13 NSaved=  13.
 NSaved=13 IEnMin=13 EnMin= -880.913532885486     IErMin=13 ErrMin= 6.10D-08
 ErrMax= 6.10D-08  0.00D+00 EMaxC= 1.00D-01 BMatC= 3.49D-12 BMatP= 6.09D-11
 IDIUse=1 WtCom= 1.00D+00 WtEn= 0.00D+00
 Coeff-Com: -0.132D-05 0.319D-05-0.372D-05 0.262D-05-0.255D-05-0.587D-06
 Coeff-Com: -0.514D-03-0.182D-02-0.434D-02-0.381D-02 0.421D-01 0.227D+00
 Coeff-Com:  0.742D+00
 Coeff:     -0.132D-05 0.319D-05-0.372D-05 0.262D-05-0.255D-05-0.587D-06
 Coeff:     -0.514D-03-0.182D-02-0.434D-02-0.381D-02 0.421D-01 0.227D+00
 Coeff:      0.742D+00
 Gap=     0.251 Goal=   None    Shift=    0.000
 RMSDP=2.30D-08 MaxDP=3.64D-06 DE=-6.50D-11 OVMax= 5.09D-07

 Cycle  14  Pass 1  IDiag  1:
 E= -880.913532885476     Delta-E=        0.000000000010 Rises=F Damp=F
 DIIS: error= 2.30D-08 at cycle  14 NSaved=  14.
 NSaved=14 IEnMin=13 EnMin= -880.913532885486     IErMin=14 ErrMin= 2.30D-08
 ErrMax= 2.30D-08  0.00D+00 EMaxC= 1.00D-01 BMatC= 4.56D-13 BMatP= 3.49D-12
 IDIUse=1 WtCom= 1.00D+00 WtEn= 0.00D+00
 Coeff-Com: -0.286D-06 0.746D-06 0.414D-05-0.434D-06 0.121D-04 0.156D-04
 Coeff-Com: -0.710D-04-0.589D-03-0.283D-02-0.792D-02-0.287D-02 0.605D-01
 Coeff-Com:  0.341D+00 0.613D+00
 Coeff:     -0.286D-06 0.746D-06 0.414D-05-0.434D-06 0.121D-04 0.156D-04
 Coeff:     -0.710D-04-0.589D-03-0.283D-02-0.792D-02-0.287D-02 0.605D-01
 Coeff:      0.341D+00 0.613D+00
 Gap=     0.251 Goal=   None    Shift=    0.000
 RMSDP=1.22D-08 MaxDP=1.76D-06 DE= 1.05D-11 OVMax= 1.09D-07

 Cycle  15  Pass 1  IDiag  1:
 E= -880.913532885482     Delta-E=       -0.000000000006 Rises=F Damp=F
 DIIS: error= 5.92D-09 at cycle  15 NSaved=  15.
 NSaved=15 IEnMin=13 EnMin= -880.913532885486     IErMin=15 ErrMin= 5.92D-09
 ErrMax= 5.92D-09  0.00D+00 EMaxC= 1.00D-01 BMatC= 3.17D-14 BMatP= 4.56D-13
 IDIUse=1 WtCom= 1.00D+00 WtEn= 0.00D+00
 Coeff-Com:  0.508D-08 0.659D-07 0.225D-05-0.656D-06 0.608D-05 0.541D-05
 Coeff-Com:  0.235D-04-0.729D-04-0.704D-03-0.274D-02-0.407D-02 0.689D-02
 Coeff-Com:  0.748D-01 0.245D+00 0.681D+00
 Coeff:      0.508D-08 0.659D-07 0.225D-05-0.656D-06 0.608D-05 0.541D-05
 Coeff:      0.235D-04-0.729D-04-0.704D-03-0.274D-02-0.407D-02 0.689D-02
 Coeff:      0.748D-01 0.245D+00 0.681D+00
 Gap=     0.251 Goal=   None    Shift=    0.000
 RMSDP=6.18D-09 MaxDP=1.69D-06 DE=-6.37D-12 OVMax= 3.34D-08

 Cycle  16  Pass 1  IDiag  1:
 E= -880.913532885487     Delta-E=       -0.000000000005 Rises=F Damp=F
 DIIS: error= 2.16D-09 at cycle  16 NSaved=  16.
 NSaved=16 IEnMin=16 EnMin= -880.913532885487     IErMin=16 ErrMin= 2.16D-09
 ErrMax= 2.16D-09  0.00D+00 EMaxC= 1.00D-01 BMatC= 4.29D-15 BMatP= 3.17D-14
 IDIUse=1 WtCom= 1.00D+00 WtEn= 0.00D+00
 Coeff-Com:  0.335D-07-0.495D-07 0.948D-06-0.324D-06 0.240D-05 0.143D-05
 Coeff-Com:  0.190D-04 0.831D-05-0.129D-03-0.769D-03-0.190D-02-0.181D-02
 Coeff-Com:  0.795D-02 0.686D-01 0.338D+00 0.590D+00
 Coeff:      0.335D-07-0.495D-07 0.948D-06-0.324D-06 0.240D-05 0.143D-05
 Coeff:      0.190D-04 0.831D-05-0.129D-03-0.769D-03-0.190D-02-0.181D-02
 Coeff:      0.795D-02 0.686D-01 0.338D+00 0.590D+00
 Gap=     0.251 Goal=   None    Shift=    0.000
 RMSDP=3.34D-09 MaxDP=9.33D-07 DE=-5.00D-12 OVMax= 1.23D-08

 SCF Done:  E(RPBE1PBE) =  -880.913532885     A.U. after   16 cycles
            NFock= 16  Conv=0.33D-08     -V/T= 2.0044
 KE= 8.770918856132D+02 PE=-4.915776834374D+03 EE= 1.721524943048D+03
 Leave Link  502 at Tue Jan 10 01:39:46 2017, MaxMem= 13421772800 cpu:      1025.2
 (Enter /share/apps//g09/l601.exe)
 Copying SCF densities to generalized density rwf, IOpCl= 0 IROHF=0.

 **********************************************************************

            Population analysis using the SCF density.

 **********************************************************************

 Orbital symmetries:
       Occupied  (A) (A) (A) (A) (A) (A) (A) (A) (A) (A) (A) (A)
                 (A) (A) (A) (A) (A) (A) (A) (A) (A) (A) (A) (A)
                 (A) (A) (A) (A) (A) (A) (A) (A) (A) (A) (A) (A)
                 (A) (A) (A) (A) (A) (A) (A) (A) (A) (A) (A) (A)
                 (A) (A) (A) (A) (A) (A) (A) (A) (A) (A) (A) (A)
                 (A) (A) (A) (A) (A) (A)
       Virtual   (A) (A) (A) (A) (A) (A) (A) (A) (A) (A) (A) (A)
                 (A) (A) (A) (A) (A) (A) (A) (A) (A) (A) (A) (A)
                 (A) (A) (A) (A) (A) (A) (A) (A) (A) (A) (A) (A)
                 (A) (A) (A) (A) (A) (A) (A) (A) (A) (A) (A) (A)
                 (A) (A) (A) (A) (A) (A) (A) (A) (A) (A) (A) (A)
                 (A) (A) (A) (A) (A) (A) (A) (A) (A) (A) (A) (A)
                 (A) (A) (A) (A) (A) (A) (A) (A) (A) (A) (A) (A)
                 (A) (A) (A) (A) (A) (A) (A) (A) (A) (A) (A) (A)
                 (A) (A) (A) (A) (A) (A) (A) (A) (A) (A) (A) (A)
                 (A) (A) (A) (A) (A) (A) (A) (A) (A) (A) (A) (A)
                 (A) (A) (A) (A) (A) (A) (A) (A) (A) (A) (A) (A)
                 (A) (A) (A) (A) (A) (A) (A) (A) (A) (A) (A) (A)
                 (A) (A) (A) (A) (A) (A) (A) (A) (A) (A) (A) (A)
                 (A) (A) (A) (A) (A) (A) (A) (A) (A) (A) (A) (A)
                 (A) (A) (A) (A) (A) (A) (A) (A) (A) (A) (A) (A)
                 (A) (A) (A) (A) (A) (A) (A) (A) (A) (A) (A) (A)
                 (A) (A) (A) (A) (A) (A) (A) (A) (A) (A) (A) (A)
                 (A) (A) (A) (A) (A) (A) (A) (A) (A) (A) (A) (A)
                 (A) (A) (A) (A) (A) (A) (A) (A) (A) (A) (A) (A)
                 (A) (A) (A) (A) (A) (A) (A) (A) (A) (A) (A) (A)
                 (A) (A) (A) (A) (A) (A) (A) (A) (A) (A) (A) (A)
                 (A) (A) (A) (A) (A) (A) (A) (A) (A) (A) (A) (A)
                 (A) (A) (A) (A) (A) (A) (A) (A) (A) (A) (A) (A)
                 (A) (A) (A) (A) (A) (A) (A) (A) (A) (A) (A) (A)
                 (A) (A) (A) (A) (A) (A) (A) (A) (A) (A) (A) (A)
                 (A) (A) (A) (A) (A) (A) (A) (A) (A) (A) (A) (A)
                 (A) (A) (A) (A) (A) (A) (A) (A) (A) (A) (A) (A)
                 (A) (A) (A) (A) (A) (A) (A) (A) (A) (A) (A) (A)
                 (A) (A) (A) (A) (A) (A) (A) (A) (A) (A) (A) (A)
                 (A) (A) (A) (A) (A) (A) (A) (A) (A) (A) (A) (A)
                 (A) (A) (A) (A) (A) (A) (A) (A) (A) (A) (A) (A)
                 (A) (A) (A) (A) (A) (A) (A) (A) (A) (A) (A) (A)
                 (A) (A) (A) (A) (A) (A) (A) (A) (A) (A) (A) (A)
                 (A) (A) (A) (A) (A) (A) (A) (A) (A) (A) (A) (A)
                 (A) (A) (A) (A) (A) (A) (A) (A) (A) (A) (A) (A)
                 (A) (A)
 The electronic state is 1-A.
 Alpha  occ. eigenvalues --  -19.47122 -19.41333 -19.38185 -19.36373 -19.35782
 Alpha  occ. eigenvalues --  -19.31965 -10.52347 -10.48053 -10.45702 -10.45509
 Alpha  occ. eigenvalues --  -10.44862 -10.44341 -10.43499 -10.43341 -10.39488
 Alpha  occ. eigenvalues --  -10.38966 -10.34189  -1.32420  -1.26143  -1.25620
 Alpha  occ. eigenvalues --   -1.21919  -1.20630  -1.17540  -0.99234  -0.97497
 Alpha  occ. eigenvalues --   -0.93138  -0.89827  -0.86746  -0.85150  -0.83734
 Alpha  occ. eigenvalues --   -0.81787  -0.80198  -0.75002  -0.73704  -0.72730
 Alpha  occ. eigenvalues --   -0.69779  -0.67785  -0.67027  -0.66187  -0.65040
 Alpha  occ. eigenvalues --   -0.64396  -0.63023  -0.62374  -0.61931  -0.60959
 Alpha  occ. eigenvalues --   -0.60083  -0.59125  -0.58896  -0.58401  -0.57600
 Alpha  occ. eigenvalues --   -0.56253  -0.55860  -0.55198  -0.53193  -0.52769
 Alpha  occ. eigenvalues --   -0.52112  -0.51689  -0.50580  -0.50149  -0.48373
 Alpha  occ. eigenvalues --   -0.48292  -0.47325  -0.45049  -0.43054  -0.41852
 Alpha  occ. eigenvalues --   -0.41159
 Alpha virt. eigenvalues --   -0.16073  -0.11958  -0.11789  -0.11615  -0.10020
 Alpha virt. eigenvalues --   -0.09299  -0.09153  -0.07789  -0.07532  -0.06970
 Alpha virt. eigenvalues --   -0.06683  -0.05978  -0.05731  -0.05631  -0.04314
 Alpha virt. eigenvalues --   -0.04141  -0.03408  -0.03138  -0.02777  -0.02406
 Alpha virt. eigenvalues --   -0.02102  -0.01644  -0.01367  -0.01231  -0.00565
 Alpha virt. eigenvalues --   -0.00006   0.00242   0.00377   0.00971   0.00999
 Alpha virt. eigenvalues --    0.01956   0.02567   0.02735   0.03076   0.03188
 Alpha virt. eigenvalues --    0.03580   0.03829   0.03997   0.04311   0.04751
 Alpha virt. eigenvalues --    0.04929   0.05678   0.05898   0.06477   0.06778
 Alpha virt. eigenvalues --    0.07540   0.07655   0.08147   0.08348   0.08477
 Alpha virt. eigenvalues --    0.09029   0.09891   0.09979   0.10303   0.10618
 Alpha virt. eigenvalues --    0.10773   0.11160   0.11544   0.11696   0.11974
 Alpha virt. eigenvalues --    0.12372   0.12664   0.13026   0.13393   0.13596
 Alpha virt. eigenvalues --    0.14164   0.14501   0.15340   0.15489   0.16177
 Alpha virt. eigenvalues --    0.16395   0.16834   0.16981   0.17412   0.17938
 Alpha virt. eigenvalues --    0.18789   0.19375   0.19646   0.20898   0.21156
 Alpha virt. eigenvalues --    0.21298   0.22205   0.22674   0.22835   0.23871
 Alpha virt. eigenvalues --    0.24163   0.24421   0.24717   0.25201   0.25677
 Alpha virt. eigenvalues --    0.26370   0.26819   0.27752   0.28184   0.29084
 Alpha virt. eigenvalues --    0.29323   0.30476   0.31125   0.31836   0.32310
 Alpha virt. eigenvalues --    0.32572   0.33122   0.34006   0.34621   0.35300
 Alpha virt. eigenvalues --    0.36131   0.36555   0.37300   0.37795   0.38251
 Alpha virt. eigenvalues --    0.39124   0.39645   0.40311   0.41006   0.41787
 Alpha virt. eigenvalues --    0.41976   0.43220   0.43952   0.45153   0.45461
 Alpha virt. eigenvalues --    0.47113   0.47756   0.49252   0.49468   0.49997
 Alpha virt. eigenvalues --    0.50633   0.51715   0.52965   0.53164   0.53314
 Alpha virt. eigenvalues --    0.53628   0.54765   0.55383   0.55563   0.56074
 Alpha virt. eigenvalues --    0.56399   0.56873   0.57569   0.58223   0.58671
 Alpha virt. eigenvalues --    0.59381   0.60023   0.60996   0.61210   0.61506
 Alpha virt. eigenvalues --    0.61986   0.62928   0.63604   0.64700   0.64903
 Alpha virt. eigenvalues --    0.65566   0.66957   0.68881   0.70099   0.71850
 Alpha virt. eigenvalues --    0.72013   0.75722   0.77725   0.79203   0.80607
 Alpha virt. eigenvalues --    0.83087   0.83803   0.85280   0.87462   0.88650
 Alpha virt. eigenvalues --    0.90042   0.90959   0.92156   0.92761   0.94335
 Alpha virt. eigenvalues --    0.97725   0.98324   0.98890   0.99938   1.01818
 Alpha virt. eigenvalues --    1.03005   1.04418   1.06455   1.07382   1.07799
 Alpha virt. eigenvalues --    1.09087   1.09482   1.11268   1.12099   1.13119
 Alpha virt. eigenvalues --    1.15297   1.16490   1.17173   1.17209   1.19944
 Alpha virt. eigenvalues --    1.21718   1.22288   1.22487   1.23282   1.24682
 Alpha virt. eigenvalues --    1.26106   1.27506   1.29266   1.30685   1.31264
 Alpha virt. eigenvalues --    1.31771   1.33161   1.33294   1.34164   1.35707
 Alpha virt. eigenvalues --    1.35948   1.37447   1.37910   1.38971   1.40461
 Alpha virt. eigenvalues --    1.41358   1.42108   1.42725   1.43487   1.44114
 Alpha virt. eigenvalues --    1.44735   1.44970   1.45629   1.46742   1.47983
 Alpha virt. eigenvalues --    1.48830   1.49148   1.50061   1.50495   1.51386
 Alpha virt. eigenvalues --    1.52136   1.52440   1.53289   1.54679   1.55394
 Alpha virt. eigenvalues --    1.55879   1.56856   1.57141   1.57968   1.58526
 Alpha virt. eigenvalues --    1.59658   1.61528   1.62380   1.63558   1.64576
 Alpha virt. eigenvalues --    1.64777   1.65780   1.67060   1.68384   1.69482
 Alpha virt. eigenvalues --    1.69973   1.70809   1.71324   1.73257   1.74087
 Alpha virt. eigenvalues --    1.75902   1.77578   1.78342   1.80134   1.80283
 Alpha virt. eigenvalues --    1.81255   1.84278   1.84454   1.85710   1.86636
 Alpha virt. eigenvalues --    1.88334   1.90512   1.91138   1.92826   1.93734
 Alpha virt. eigenvalues --    1.96752   1.97715   1.98252   1.99270   2.01426
 Alpha virt. eigenvalues --    2.02043   2.03949   2.04659   2.05503   2.07284
 Alpha virt. eigenvalues --    2.08352   2.09708   2.11977   2.13033   2.13976
 Alpha virt. eigenvalues --    2.16092   2.17097   2.19022   2.21284   2.24837
 Alpha virt. eigenvalues --    2.27011   2.31244   2.32374   2.33919   2.34573
 Alpha virt. eigenvalues --    2.37413   2.37646   2.38252   2.39595   2.39926
 Alpha virt. eigenvalues --    2.40638   2.40762   2.41491   2.43078   2.43947
 Alpha virt. eigenvalues --    2.44527   2.46065   2.47037   2.47897   2.48690
 Alpha virt. eigenvalues --    2.49147   2.50745   2.51608   2.52783   2.53992
 Alpha virt. eigenvalues --    2.55087   2.56280   2.57605   2.59236   2.62090
 Alpha virt. eigenvalues --    2.63945   2.66683   2.67372   2.69122   2.70664
 Alpha virt. eigenvalues --    2.71451   2.73754   2.74509   2.76236   2.77307
 Alpha virt. eigenvalues --    2.79440   2.80138   2.81977   2.82895   2.83303
 Alpha virt. eigenvalues --    2.84623   2.86540   2.88290   2.88625   2.90372
 Alpha virt. eigenvalues --    2.92749   2.93806   2.94688   2.96694   2.98632
 Alpha virt. eigenvalues --    3.00768   3.01743   3.02680   3.03980   3.05763
 Alpha virt. eigenvalues --    3.07608   3.07998   3.09627   3.10492   3.11242
 Alpha virt. eigenvalues --    3.12251   3.13835   3.15799   3.19498   3.21024
 Alpha virt. eigenvalues --    3.25984   3.29680   3.31614   3.39733   3.46926
 Alpha virt. eigenvalues --    3.55511   3.56836   3.63591   3.66683   3.67790
 Alpha virt. eigenvalues --    3.69015   3.69315   3.70016   3.70493   3.71063
 Alpha virt. eigenvalues --    3.76482   3.79908   3.82042   3.84835   3.86952
 Alpha virt. eigenvalues --    3.89248   3.94930   3.96538   3.98301   3.98907
 Alpha virt. eigenvalues --    4.01493   4.03350   4.06925   4.09624   4.11779
 Alpha virt. eigenvalues --    4.16984   4.25504   4.99441   5.00987   5.01251
 Alpha virt. eigenvalues --    5.04350   5.05289   5.07624   5.15815   5.18780
 Alpha virt. eigenvalues --    5.28063   5.30268   5.32404   5.35899   5.41306
 Alpha virt. eigenvalues --    5.51466   5.56240   5.58266   5.61319   5.78643
 Alpha virt. eigenvalues --   23.69301  23.75125  23.76321  23.81308  23.82931
 Alpha virt. eigenvalues --   23.83259  23.86592  23.89287  23.89605  23.92074
 Alpha virt. eigenvalues --   23.94437  49.88803  49.91088  49.92944  49.97165
 Alpha virt. eigenvalues --   50.00129  50.00875
          Condensed to atoms (all electrons):
               1          2          3          4          5          6
     1  C    7.982206  -2.133086   0.856880  -1.450627   0.662826  -0.389413
     2  C   -2.133086  11.509362  -2.466353   0.243355  -0.025812  -1.004460
     3  C    0.856880  -2.466353  16.688091  -9.371270   3.268477  -2.773792
     4  C   -1.450627   0.243355  -9.371270  25.196411 -11.646426   4.459602
     5  C    0.662826  -0.025812   3.268477 -11.646426  20.778441  -8.277348
     6  C   -0.389413  -1.004460  -2.773792   4.459602  -8.277348  15.174498
     7  O    0.020146   0.114486  -0.098490  -0.031628  -0.018489   0.379218
     8  O    0.092929  -0.269950  -0.003958  -0.250965   0.342173  -0.146887
     9  O    0.109954  -0.166298   0.250971  -0.493603   0.145291  -0.052954
    10  O   -0.175134   0.188884   0.168348  -0.118221   0.252764  -0.580408
    11  H    0.416449  -0.046882  -0.062440   0.046205   0.007659   0.021749
    12  H    0.434141  -0.062874   0.015414   0.007524   0.000354  -0.019075
    13  H   -0.011383   0.423726  -0.023687  -0.009702   0.048724  -0.035778
    14  H   -0.013985  -0.128539   0.380455   0.053302   0.019547   0.030767
    15  H    0.003974  -0.010253  -0.058595   0.396208   0.026770   0.010824
    16  H    0.019183  -0.042518   0.009003  -0.019580   0.390814  -0.024090
    17  H    0.025647  -0.005102   0.017501  -0.033845   0.114736   0.243589
    18  O    0.003046  -0.069743   0.058424   0.034789   0.227771  -0.187181
    19  C   -0.182859   0.022183   0.074546   0.077583  -0.018695  -0.274116
    20  H   -0.006715   0.006147   0.002381  -0.010464   0.022832   0.008165
    21  H   -0.029008   0.022754  -0.019727   0.064295  -0.030745  -0.028537
    22  H    0.025557  -0.006604   0.000544   0.004599  -0.021987   0.019568
    23  C   -0.019545   0.029483  -0.116324   0.076701  -0.210583   0.065034
    24  H    0.000173   0.004259  -0.012728  -0.018654   0.022040   0.005965
    25  H    0.000757  -0.006554   0.006028   0.061332  -0.082451   0.011278
    26  H   -0.000067   0.001008  -0.006128  -0.004145   0.050702  -0.006625
    27  C    0.011819  -0.025600  -0.253728  -0.280110   0.177823   0.021936
    28  H   -0.003936   0.002063   0.062312  -0.063902  -0.009530   0.000631
    29  H    0.001874  -0.001207   0.026140  -0.044919   0.018462  -0.003213
    30  H   -0.002635   0.002592  -0.035054   0.090027  -0.014865   0.003263
    31  C    0.054378   0.211656  -0.390460  -0.313239  -0.000481  -0.056069
    32  O   -0.007075  -0.105079   0.148197   0.023046   0.015591  -0.002861
    33  C   -0.081367   0.025498   0.251385  -0.137828   0.015403  -0.009220
    34  H    0.004697  -0.009843   0.005011   0.009884  -0.001809   0.000980
    35  H   -0.000074  -0.002306  -0.026236   0.007318   0.001134  -0.000439
    36  H   -0.000546   0.005433  -0.003113  -0.002490  -0.000091   0.000046
               7          8          9         10         11         12
     1  C    0.020146   0.092929   0.109954  -0.175134   0.416449   0.434141
     2  C    0.114486  -0.269950  -0.166298   0.188884  -0.046882  -0.062874
     3  C   -0.098490  -0.003958   0.250971   0.168348  -0.062440   0.015414
     4  C   -0.031628  -0.250965  -0.493603  -0.118221   0.046205   0.007524
     5  C   -0.018489   0.342173   0.145291   0.252764   0.007659   0.000354
     6  C    0.379218  -0.146887  -0.052954  -0.580408   0.021749  -0.019075
     7  O    7.616203   0.021597   0.014782  -0.079967   0.010637  -0.000674
     8  O    0.021597   8.269623   0.042930  -0.014674  -0.003794   0.002061
     9  O    0.014782   0.042930   8.506549  -0.003221   0.006157  -0.000526
    10  O   -0.079967  -0.014674  -0.003221   8.353933  -0.062168  -0.024893
    11  H    0.010637  -0.003794   0.006157  -0.062168   0.411294  -0.022862
    12  H   -0.000674   0.002061  -0.000526  -0.024893  -0.022862   0.409762
    13  H   -0.036960   0.000593  -0.005427   0.002781   0.001042  -0.002033
    14  H    0.014809   0.011863  -0.029939  -0.000404   0.000712   0.000058
    15  H   -0.000058  -0.056682   0.001742   0.000299  -0.000151   0.000023
    16  H    0.006532   0.000112  -0.000509   0.002530  -0.000176  -0.000015
    17  H   -0.045749   0.001410   0.000372  -0.012149  -0.000146   0.000121
    18  O    0.004150   0.011825  -0.001242   0.016219  -0.000122   0.000078
    19  C    0.013779   0.003306  -0.002053   0.105393   0.006577   0.005787
    20  H   -0.001202  -0.000392  -0.000119  -0.040212  -0.001611   0.001682
    21  H    0.001763  -0.001094  -0.000339  -0.041985   0.006187  -0.000809
    22  H   -0.000061  -0.001103  -0.000009  -0.039493   0.000243  -0.000264
    23  C   -0.000018  -0.001050  -0.001084  -0.008548  -0.000101   0.000028
    24  H    0.001666   0.000367   0.000015  -0.002127   0.000001  -0.000001
    25  H   -0.000308  -0.000983  -0.000006   0.000662  -0.000000   0.000000
    26  H    0.000083   0.000158   0.000006   0.000105   0.000000   0.000000
    27  C    0.005747   0.153119   0.024570  -0.005455   0.006542  -0.000083
    28  H    0.000084  -0.037110  -0.004842  -0.000406   0.000593  -0.000008
    29  H   -0.000013  -0.056614   0.000450   0.000023  -0.000185   0.000004
    30  H    0.000047  -0.071852   0.001567  -0.001041   0.000006   0.000003
    31  C   -0.021323  -0.015147  -0.039390   0.007985  -0.007520   0.002984
    32  O   -0.002208  -0.001818  -0.165718  -0.000418  -0.000091   0.000002
    33  C   -0.005462  -0.016841  -0.304594   0.001517  -0.000659   0.000353
    34  H    0.000024  -0.000143   0.000599   0.000031  -0.000213  -0.000006
    35  H   -0.000001   0.000171  -0.000698  -0.000005   0.000021   0.000000
    36  H   -0.000007   0.000020   0.014333  -0.000002   0.000004   0.000000
              13         14         15         16         17         18
     1  C   -0.011383  -0.013985   0.003974   0.019183   0.025647   0.003046
     2  C    0.423726  -0.128539  -0.010253  -0.042518  -0.005102  -0.069743
     3  C   -0.023687   0.380455  -0.058595   0.009003   0.017501   0.058424
     4  C   -0.009702   0.053302   0.396208  -0.019580  -0.033845   0.034789
     5  C    0.048724   0.019547   0.026770   0.390814   0.114736   0.227771
     6  C   -0.035778   0.030767   0.010824  -0.024090   0.243589  -0.187181
     7  O   -0.036960   0.014809  -0.000058   0.006532  -0.045749   0.004150
     8  O    0.000593   0.011863  -0.056682   0.000112   0.001410   0.011825
     9  O   -0.005427  -0.029939   0.001742  -0.000509   0.000372  -0.001242
    10  O    0.002781  -0.000404   0.000299   0.002530  -0.012149   0.016219
    11  H    0.001042   0.000712  -0.000151  -0.000176  -0.000146  -0.000122
    12  H   -0.002033   0.000058   0.000023  -0.000015   0.000121   0.000078
    13  H    0.381774  -0.004827  -0.000025  -0.000007   0.000365   0.000155
    14  H   -0.004827   0.410467   0.000550  -0.000064  -0.000293   0.006166
    15  H   -0.000025   0.000550   0.436141  -0.002677  -0.000012   0.001938
    16  H   -0.000007  -0.000064  -0.002677   0.451117  -0.002840  -0.033681
    17  H    0.000365  -0.000293  -0.000012  -0.002840   0.419512   0.007123
    18  O    0.000155   0.006166   0.001938  -0.033681   0.007123   7.912932
    19  C   -0.002090   0.000228   0.002100   0.006467  -0.003247   0.001833
    20  H   -0.000003  -0.000005  -0.000009  -0.000152  -0.000012   0.000023
    21  H   -0.000052   0.000009  -0.000320  -0.000284  -0.000121  -0.000161
    22  H    0.000025  -0.000003   0.000006   0.000197   0.001182  -0.000043
    23  C   -0.000015  -0.000631  -0.003514  -0.003277  -0.005193   0.119663
    24  H   -0.000000   0.000056   0.000106  -0.004435  -0.000828  -0.048368
    25  H    0.000000  -0.000053  -0.000385   0.008735   0.000166  -0.032674
    26  H   -0.000001   0.000028   0.000002   0.000390   0.000003  -0.060513
    27  C    0.000107   0.004532  -0.009021  -0.001249   0.000097  -0.004672
    28  H    0.000007  -0.000554  -0.001125   0.000052  -0.000001   0.000331
    29  H   -0.000003   0.000181   0.010615  -0.000012  -0.000001  -0.000741
    30  H   -0.000003   0.000036  -0.000049  -0.000141  -0.000003   0.000111
    31  C   -0.004228  -0.029947   0.006973  -0.000522  -0.000856  -0.005951
    32  O    0.005126   0.007398  -0.000519   0.000014   0.000002  -0.000280
    33  C   -0.003386  -0.006671  -0.000533  -0.000021  -0.000058  -0.000955
    34  H   -0.000033  -0.000072  -0.000015   0.000000  -0.000000   0.000001
    35  H    0.000021  -0.000024  -0.000033  -0.000000   0.000000  -0.000004
    36  H    0.000006   0.000053   0.000006   0.000000  -0.000000  -0.000000
              19         20         21         22         23         24
     1  C   -0.182859  -0.006715  -0.029008   0.025557  -0.019545   0.000173
     2  C    0.022183   0.006147   0.022754  -0.006604   0.029483   0.004259
     3  C    0.074546   0.002381  -0.019727   0.000544  -0.116324  -0.012728
     4  C    0.077583  -0.010464   0.064295   0.004599   0.076701  -0.018654
     5  C   -0.018695   0.022832  -0.030745  -0.021987  -0.210583   0.022040
     6  C   -0.274116   0.008165  -0.028537   0.019568   0.065034   0.005965
     7  O    0.013779  -0.001202   0.001763  -0.000061  -0.000018   0.001666
     8  O    0.003306  -0.000392  -0.001094  -0.001103  -0.001050   0.000367
     9  O   -0.002053  -0.000119  -0.000339  -0.000009  -0.001084   0.000015
    10  O    0.105393  -0.040212  -0.041985  -0.039493  -0.008548  -0.002127
    11  H    0.006577  -0.001611   0.006187   0.000243  -0.000101   0.000001
    12  H    0.005787   0.001682  -0.000809  -0.000264   0.000028  -0.000001
    13  H   -0.002090  -0.000003  -0.000052   0.000025  -0.000015  -0.000000
    14  H    0.000228  -0.000005   0.000009  -0.000003  -0.000631   0.000056
    15  H    0.002100  -0.000009  -0.000320   0.000006  -0.003514   0.000106
    16  H    0.006467  -0.000152  -0.000284   0.000197  -0.003277  -0.004435
    17  H   -0.003247  -0.000012  -0.000121   0.001182  -0.005193  -0.000828
    18  O    0.001833   0.000023  -0.000161  -0.000043   0.119663  -0.048368
    19  C    5.314852   0.393684   0.418855   0.389698  -0.015578  -0.001476
    20  H    0.393684   0.441433  -0.019752  -0.013972   0.000499  -0.000004
    21  H    0.418855  -0.019752   0.403755  -0.018003  -0.000718   0.000011
    22  H    0.389698  -0.013972  -0.018003   0.447812  -0.001173  -0.000048
    23  C   -0.015578   0.000499  -0.000718  -0.001173   5.167302   0.418202
[...]
 030723,-0.00009109,0.00001120,-0.00002316,0.00099358,-0.00123894,-0.00
 123058,-0.00000146,0.00006921,0.00025961,-0.00004352,0.00005454,0.0002
 0010,-0.00014506,0.00014926,0.00004367,0.00191811,0.00133895,-0.000708
 05,0.00089496,0.00190451,-0.00015296,-0.00044358,0.00017642,0.00033130
 ,-0.00001429,-0.00003241,0.00072149,-0.11199369,-0.11504066,0.53093598
 ,0.00040663,-0.00019248,0.00032148,-0.00327514,-0.00109367,-0.00035898
 ,-0.00414998,-0.00597172,-0.00338146,0.00127516,-0.00033186,-0.0006123
 2,-0.00018978,-0.00038066,-0.00008274,-0.00063979,-0.00021481,0.000053
 39,0.00134103,0.00043739,-0.00069301,-0.00057485,-0.00037346,0.0011905
 5,0.01311049,-0.02062955,0.03917961,0.00035724,0.00014174,-0.00050537,
 -0.00033745,0.00005495,-0.00034668,0.00011196,0.00001635,0.00022074,0.
 00101233,0.00066502,0.00026506,-0.00063373,0.00017024,0.00104449,0.000
 15390,0.00007560,-0.00012374,0.00006824,0.00010870,0.00009417,0.000092
 90,0.00004783,-0.00008171,-0.00003810,0.00036953,0.00023670,-0.0000458
 2,-0.00017571,0.00001075,0.00001217,0.00001367,-0.00000849,-0.00006445
 ,-0.00001269,-0.00010612,-0.00000193,0.00003793,-0.00005060,0.00010945
 ,-0.00019486,-0.00017003,0.00000826,0.00003168,0.00006129,-0.00000862,
 0.00001068,0.00002552,-0.00001666,0.00000631,-0.00000373,0.00028832,0.
 00034110,-0.00005476,0.00020492,0.00024244,-0.00007423,-0.00006067,0.0
 0002389,0.00004495,-0.00000545,-0.00003620,0.00005274,-0.11540189,-0.1
 3432934,0.06196550,0.08403290,0.00058051,-0.00084130,-0.00001727,-0.00
 349929,0.00003808,0.00082616,0.00361146,-0.01326207,-0.00713766,-0.000
 48720,0.00262104,0.00065388,-0.00034020,-0.00129056,0.00091165,-0.0005
 2967,-0.00049495,0.00057127,0.00170738,0.00192487,-0.00027084,0.000093
 95,0.00199708,-0.00057435,-0.02366099,-0.00286242,0.06689116,0.0001411
 4,0.00069488,-0.00104809,-0.00037515,0.00002682,-0.00060446,0.00008581
 ,0.00000189,0.00014731,0.00197423,0.00064153,0.00134797,-0.00204532,0.
 00279607,0.00073109,0.00024509,-0.00006685,-0.00023874,0.00007821,0.00
 036448,0.00016136,0.00009550,0.00004062,-0.00008084,-0.00011597,0.0006
 2300,-0.00016790,-0.00012845,-0.00033276,0.00013393,0.00001203,0.00000
 879,-0.00004274,-0.00005094,-0.00002784,-0.00014181,0.00000627,0.00006
 652,-0.00007043,0.00003411,-0.00014027,-0.00012574,0.00000450,0.000006
 16,0.00005806,0.00003000,0.00003218,-0.00001658,-0.00005931,0.00003630
 ,0.00003584,0.00007294,-0.00089000,-0.00113041,0.00038650,0.00049894,0
 .00012097,-0.00008049,0.00018642,0.00024227,0.00003726,0.00010372,0.00
 017086,-0.13091939,-0.65144092,0.21257267,0.16635958,0.71143953,0.0004
 7569,0.00010825,0.00053549,0.00040251,-0.00032892,-0.00021241,-0.00266
 513,0.01303852,0.00574633,-0.00177765,0.00024565,0.00113389,-0.0003221
 0,0.00115724,-0.00034169,-0.00001225,-0.00027931,0.00095485,-0.0004256
 0,-0.00164472,-0.00201097,0.00123392,0.00092780,-0.00152423,0.03750508
 ,0.05748812,-0.06382388,-0.00008317,0.00010628,-0.00102815,0.00035552,
 -0.00006256,0.00035725,-0.00004644,-0.00012892,-0.00028257,0.00045983,
 -0.00019892,-0.00278488,0.00030236,-0.00093962,-0.00269751,-0.00008117
 ,0.00008010,0.00002618,0.00005797,-0.00023496,-0.00016713,-0.00004303,
 0.00002053,-0.00015797,0.00075170,-0.00094628,-0.00020811,-0.00001268,
 -0.00031475,0.00051380,0.00000054,0.00000967,0.00000925,0.00008787,0.0
 0004177,0.00011983,0.00003722,0.00001779,-0.00001692,-0.00038898,0.000
 46556,0.00046950,0.00000213,-0.00002220,-0.00009346,0.00001735,-0.0000
 1749,-0.00007757,0.00005912,-0.00006092,-0.00002301,-0.00072498,-0.000
 64354,0.00011066,-0.00034054,-0.00068006,-0.00000098,0.00018264,-0.000
 04794,-0.00014667,0.00002205,0.00002778,-0.00025315,0.06590439,0.23332
 167,-0.20344535,-0.10254123,-0.29016129,0.25111185,-0.00008833,-0.0000
 4918,0.00003820,-0.00066704,0.00068947,0.00056095,0.00409438,-0.000670
 41,0.00281004,0.00003234,-0.00007693,0.00047894,-0.00008377,-0.0001018
 1,0.00002745,0.00006400,0.00004977,-0.00009572,0.00027727,0.00039400,0
 .00034636,-0.00002964,0.00023627,-0.00003737,0.00731691,0.01237480,0.0
 1245033,0.00001350,0.00000360,-0.00002452,-0.00003657,-0.00002312,0.00
 000369,0.00000175,0.00002511,0.00000701,-0.00009540,0.00001792,0.00001
 746,-0.00005429,-0.00006554,-0.00052336,-0.00002792,-0.00000421,0.0000
 1572,-0.00000280,0.00000693,-0.00000011,-0.00001544,-0.00000509,0.0000
 1422,-0.00003470,0.00005597,-0.00000740,-0.00000499,-0.00001672,0.0000
 0071,-0.00000179,-0.00000258,0.00000022,-0.00000025,-0.00000414,-0.000
 00645,0.,0.00000367,-0.00000237,0.00000269,0.00000484,-0.00001048,-0.0
 0000058,-0.00000194,-0.00000072,0.00000299,-0.00000071,-0.00000205,-0.
 00000382,0.00000479,0.00000527,-0.00004761,-0.00008268,-0.00012889,0.0
 0011859,-0.00005125,0.00006168,-0.00001796,0.00003508,0.00005797,0.000
 00806,0.00000205,-0.00003793,-0.08968106,0.01218746,0.00118287,0.02298
 204,-0.01413741,0.00438345,0.54852458,0.00003789,0.00000858,0.00012392
 ,-0.00035601,0.00004768,-0.00000914,-0.00077882,0.00272711,0.00375874,
 -0.00006723,0.00042686,0.00032709,-0.00016298,-0.00002130,0.00012205,-
 0.00012048,-0.00008959,0.00024011,0.00018122,-0.00000604,-0.00032552,0
 .00021036,0.00026543,-0.00020850,0.00142704,-0.00059821,-0.00935701,0.
 00003279,0.00006148,-0.00033774,0.00002011,-0.00000165,0.00007276,0.00
 000489,-0.00001447,-0.00002209,0.00033517,0.00015738,0.00037469,-0.000
 21715,-0.00021001,0.00010905,0.00000513,0.00001660,-0.00000757,0.00001
 830,0.00003082,0.00001403,0.00001415,0.00000498,-0.00002725,0.00011689
 ,-0.00007260,-0.00007589,-0.00001956,-0.00010834,0.00013767,0.00000418
 ,0.00000633,0.00000206,-0.00000032,0.00000761,0.00000435,0.00000810,0.
 00000854,-0.00001247,-0.00007240,0.00006797,0.00007534,0.00000048,-0.0
 0000464,-0.00000852,0.00000924,0.00000469,-0.00001874,-0.00000086,-0.0
 0000426,0.00000411,-0.00011114,-0.00019929,-0.00002157,-0.00006304,-0.
 00007650,0.00000449,0.00003179,-0.00000235,-0.00001570,-0.00000389,0.0
 0000491,-0.00002431,0.01059921,-0.18836893,-0.05857340,-0.00698685,-0.
 04518105,-0.00679763,-0.00017516,0.51587662,-0.00004686,-0.00006261,0.
 00001175,0.00095981,0.00005545,0.00001012,0.00164392,0.00335873,-0.003
 07868,-0.00019005,-0.00211198,-0.00024799,0.00031400,0.00065408,-0.000
 40633,0.00022797,-0.00007241,0.00030915,-0.00048282,-0.00046282,-0.000
 28533,-0.00005876,0.00039364,-0.00003718,0.00961319,-0.03769682,-0.030
 70984,-0.00013811,0.00011874,-0.00006022,0.00010433,-0.00002501,0.0000
 4794,-0.00003698,-0.00000298,-0.00008491,-0.00029207,-0.00012246,-0.00
 023998,0.00019806,-0.00011734,-0.00028610,-0.00001765,0.00003418,0.000
 00087,-0.00000902,-0.00019179,-0.00014373,-0.00004000,-0.00000873,-0.0
 0000447,0.00014065,-0.00025607,-0.00006886,-0.00001284,-0.00003664,0.0
 0010573,-0.00000543,-0.00000352,-0.00000419,0.00003047,-0.00000412,0.0
 0002581,0.00001031,0.00000174,0.00001120,-0.00009407,0.00011731,0.0001
 3545,-0.00000065,-0.00000952,-0.00002860,0.00000247,-0.00000563,-0.000
 01873,0.00001367,-0.00001920,-0.00000448,-0.00018305,-0.00020667,0.000
 03445,0.00003019,-0.00006386,0.00008719,0.00002332,0.00000411,-0.00000
 552,0.00001583,0.00002605,-0.00005829,-0.00067865,-0.05723182,-0.11122
 099,0.00728809,0.01842047,0.01663393,-0.02757503,-0.03831130,0.5922380
 2,0.00004189,-0.00001593,-0.00005892,0.00009351,0.00000045,-0.00003466
 ,-0.00001744,-0.00004767,0.00012889,-0.00004262,0.00018449,-0.00014205
 ,0.00000280,0.00002587,0.00001286,0.00005712,0.00002220,-0.00003704,-0
 .00006937,-0.00000826,0.00005904,-0.00009983,-0.00039409,-0.00005669,0
 .00010367,-0.00007033,0.00122687,-0.00004581,0.00000291,0.00005671,0.0
 0005417,0.00002594,0.00000374,-0.00000953,-0.00002497,-0.00001452,-0.0
 0001718,-0.00003606,0.00000319,-0.00001473,-0.00007148,-0.00000571,-0.
 00000355,0.00000104,0.00000382,-0.00000447,0.00000557,0.00000976,-0.00
 001118,-0.00000242,0.00000367,0.00000206,-0.00004940,-0.00000233,0.000
 01696,0.00003434,-0.00002882,-0.00000216,-0.00000463,-0.00000025,0.000
 01278,0.00000574,0.00001961,-0.00000217,-0.00000480,0.00000473,-0.0000
 0027,0.00000931,0.00000896,-0.00000063,-0.00000212,-0.00000331,-0.0000
 0199,-0.00000035,0.00000142,0.00000241,-0.00000216,-0.00000196,0.00012
 794,0.00027904,0.00030359,-0.00013461,0.00005551,0.00000209,0.00001345
 ,-0.00004677,-0.00008919,-0.00000347,-0.00001342,0.00000548,-0.0020995
 2,-0.00256767,-0.00120823,0.00008501,-0.00136448,-0.00043703,-0.095984
 90,0.08506959,-0.07215204,0.10230716,0.00006718,-0.00012448,-0.0000791
 5,-0.00001853,-0.00014607,-0.00004176,-0.00066656,-0.00002754,-0.00035
 104,0.00001880,0.00015630,0.00000916,-0.00000083,-0.00006166,0.0000400
 7,0.00001699,-0.00004384,0.00002836,0.00000091,0.00005247,-0.00002787,
 -0.00004249,-0.00001937,-0.00001693,-0.00136416,0.00179437,-0.00067915
 ,-0.00005119,0.00008453,0.00003714,0.00001554,0.00000222,-0.00008653,-
 0.00000748,-0.00000724,-0.00001446,0.00012980,0.00000548,0.00011652,-0
 .00012920,0.00016941,0.00024006,0.00000009,0.00000264,-0.00000433,0.00
 000198,0.00001541,0.00001052,0.00000020,0.00000283,-0.00000517,-0.0000
 3740,0.00004354,0.00000347,-0.00000325,0.00001966,-0.00003695,-0.00000
 074,-0.00000235,-0.00000703,0.00000186,-0.00000312,-0.00000482,-0.0000
 0162,0.00000084,0.00000102,0.00001750,-0.00002030,-0.00002193,-0.00000
 006,0.00000043,0.00000375,-0.00000064,0.00000098,0.00000342,-0.0000025
 2,0.00000284,0.00000140,0.00001861,0.00002118,-0.00004108,0.00006500,0
 .00003588,-0.00001680,-0.00001345,0.00001097,0.00002330,0.00000576,0.0
 0000599,0.00001204,0.01422248,-0.01901559,0.02375429,-0.00223503,-0.00
 513518,-0.00473512,0.08510020,-0.16516358,0.10924590,-0.08961953,0.179
 94632,-0.00000697,-0.00007611,-0.00000222,-0.00000921,0.00001074,0.000
 00140,-0.00012008,0.00029405,0.00052960,0.00000239,0.00000642,0.000097
 15,-0.00000958,-0.00001892,0.00002106,-0.00000765,-0.00003593,0.000055
 83,0.00001118,0.00000786,-0.00005731,-0.00000155,0.00012362,-0.0000329
 2,-0.00050432,-0.00057721,-0.00176418,-0.00001054,0.00005642,-0.000019
 29,0.00000468,-0.00002506,-0.00002572,-0.00000257,0.00001015,-0.000001
 18,0.00004430,0.00002635,0.00007624,-0.00000907,-0.00006872,0.00000526
 ,-0.00000020,0.00000512,-0.00000788,0.00000396,0.00000361,-0.00000026,
 0.00000268,0.00000325,-0.00000606,-0.00000708,0.00002360,-0.00000201,-
 0.00001050,-0.00001093,0.00000154,-0.00000112,-0.00000196,-0.00000479,
 0.00000048,-0.00000434,-0.00000839,0.00000020,0.00000407,-0.00000240,0
 .00000227,-0.00000516,-0.00000920,0.00000108,0.00000062,0.00000179,0.0
 0000080,0.,-0.00000054,-0.00000143,0.00000070,0.00000062,-0.00005034,-
 0.00006799,-0.00005884,0.00008055,-0.00001543,0.00002328,-0.00001067,0
 .00002979,0.00003108,0.00001404,0.00000762,-0.00002492,0.01081393,-0.0
 0753912,0.01110894,-0.00280491,-0.00347450,-0.00069792,-0.07336533,0.1
 1075925,-0.14971530,0.08147591,-0.11949855,0.15690455,-0.00002071,0.00
 001749,-0.00000726,-0.00006838,0.00003178,0.00001436,0.00010361,-0.000
 45270,-0.00037676,0.00004291,0.00001796,-0.00004294,0.00000251,-0.0000
 3438,0.00001222,-0.00000830,0.00001527,-0.00005375,0.00003345,0.000057
 26,0.00007153,-0.00000865,0.00002191,0.00003124,-0.00013926,0.00053315
 ,0.00101841,0.00002179,-0.00002202,0.00002426,-0.00002137,-0.00000037,
 -0.00000428,0.00000568,0.00000705,0.00001692,-0.00002543,-0.00000380,-
 0.00001983,-0.00001033,0.00004383,-0.00000135,-0.00000033,-0.00000323,
 0.00000941,-0.00000236,0.00000911,0.00000750,0.00000112,-0.00000132,0.
 00000545,-0.00002327,0.00002630,0.00000989,0.00000098,0.00000631,-0.00
 001288,-0.00000011,0.00000024,0.00000143,-0.00000418,-0.00000163,-0.00
 000460,-0.00000085,-0.00000033,-0.00000012,0.00001307,-0.00001367,-0.0
 0001515,-0.00000105,0.00000079,0.00000242,-0.00000040,0.00000022,0.000
 00356,-0.00000060,0.00000251,0.00000039,0.00000268,-0.00000240,-0.0000
 5631,0.00005573,0.00000123,-0.00005366,-0.00001140,0.00001103,0.000030
 02,-0.00000583,-0.00000321,0.00000321,0.00290090,-0.00176020,0.0013287
 8,-0.00023455,0.00193103,-0.00140830,-0.28134963,-0.08123663,-0.042414
 17,-0.01249133,-0.00509226,-0.00128005,0.30351144,0.00000839,-0.000024
 96,0.00000126,-0.00008074,0.00014908,0.00015744,0.00095122,-0.00023488
 ,-0.00005083,-0.00009587,-0.00011195,0.00000848,0.00002001,0.00002128,
 -0.00003878,0.00000510,0.00001653,0.00000218,0.00005232,0.00007470,0.0
 0005072,-0.00000538,-0.00005678,-0.00001443,0.00181585,0.00051492,0.00
 065963,-0.00000551,0.00000735,0.00000258,0.00000671,0.00000127,-0.0000
 1298,-0.00000219,-0.00000510,-0.00000736,0.00001536,0.00000504,0.00002
 751,-0.00008350,-0.00001888,-0.00006456,0.00002901,0.00000192,-0.00002
 807,-0.00000016,-0.00001078,-0.00000627,-0.00000179,0.00000051,-0.0000
 0023,0.00001326,-0.00000480,0.00001408,0.00000289,0.00000526,-0.000009
 96,-0.00000006,-0.00000036,-0.00000068,0.00000169,0.00000036,0.0000008
 9,-0.00000063,0.00000026,-0.00000024,0.00000084,-0.00000107,-0.0000034
 1,0.00000151,0.00000104,0.00000112,-0.00000101,-0.00000150,-0.00000137
 ,-0.00000012,-0.00000304,-0.00000141,0.00001459,0.00002133,0.00004107,
 -0.00002055,0.00006336,-0.00003615,0.00000582,-0.00000167,-0.00002078,
 0.00000783,0.00000764,0.00002333,-0.03361574,-0.01042082,-0.00386002,0
 .00515979,-0.00406134,-0.00040296,-0.08406202,-0.06902813,-0.01847118,
 0.02103944,0.00794122,0.00356308,0.08950375,0.07661589,-0.00002821,-0.
 00000275,0.00003628,-0.00004134,0.00013588,0.00007185,0.00073188,0.000
 09715,0.00009824,-0.00004548,-0.00033813,0.00015057,0.00003576,-0.0000
 0287,-0.00005235,-0.00003259,-0.00001788,0.00005594,0.00005985,0.00003
 286,-0.00003156,0.00013322,0.00041587,0.00006908,0.00180112,-0.0006562
 6,-0.00092760,0.00001427,0.00001295,-0.00004952,-0.00002576,-0.0000130
 3,0.00001786,0.00000244,0.00000953,-0.00000301,0.00001923,0.00002293,0
 .00001539,0.00001204,-0.00004715,-0.00007553,0.00002806,-0.00001221,-0
 .00001961,0.00000348,-0.00001913,-0.00002148,0.00000970,0.00000271,-0.
 00000296,-0.00000820,0.00005476,0.00000674,-0.00001265,-0.00002835,0.0
 0002230,0.00000287,0.00000346,-0.00000198,-0.00001068,-0.00000548,-0.0
 0001751,0.00000221,0.00000509,-0.00000418,0.00000586,-0.00001154,-0.00
 001164,0.00000095,0.00000244,0.00000376,0.00000150,-0.00000096,-0.0000
 0150,-0.00000300,0.00000166,0.00000184,-0.00009146,-0.00033745,-0.0002
 9973,-0.00001159,0.00001334,-0.00008045,0.00000374,0.00002802,0.000047
 04,0.00000345,0.00003014,0.00005031,-0.01611066,-0.00187317,-0.0036652
 6,0.00118058,-0.00035913,0.00037140,-0.04319680,-0.01822676,-0.0507618
 8,-0.01750075,-0.00710964,-0.00385164,0.04747467,0.01877073,0.05161414
 ,0.00001156,0.00000742,-0.00002662,-0.00003345,0.00009402,0.00004756,0
 .00076351,-0.00033299,-0.00017127,-0.00002490,-0.00011730,-0.00003180,
 0.00003644,-0.00000606,-0.00002394,0.00002229,0.00001084,-0.00002527,0
 .00001308,0.00005714,0.00005929,0.00001433,0.00004936,0.00001941,0.001
 08746,-0.00027794,-0.00006225,-0.00001203,-0.00000369,0.00001727,-0.00
 000110,0.00000990,0.00000830,-0.00000065,-0.00000362,-0.00000466,0.000
 00954,-0.00000764,0.00000026,-0.00001188,-0.00004446,0.00000594,0.0000
 1034,-0.00001236,-0.00000342,-0.00000227,-0.00000715,-0.00000842,-0.00
 000122,-0.00000125,0.00000390,-0.00001861,0.00001798,0.00000381,0.0000
 0360,0.00000608,-0.00000895,0.00000064,0.00000014,-0.00000029,-0.00000
 182,-0.00000045,-0.00000129,-0.00000005,-0.00000014,0.00000055,0.00000
 856,-0.00000648,-0.00000663,-0.00000071,0.00000038,0.00000079,-0.00000
 034,-0.00000050,0.00000109,-0.00000082,0.00000110,0.00000090,0.0000087
 6,-0.00004558,-0.00004657,-0.00004210,0.00002777,-0.00004024,0.0000041
 2,-0.00000382,-0.00000455,-0.00000229,0.00000728,0.00002798,-0.0027157
 9,-0.00177711,-0.00116412,0.00002592,0.00030679,-0.00093102,-0.1152106
 0,-0.00775403,0.12381197,0.00813585,-0.00039595,-0.01424528,-0.0122675
 5,-0.00068011,0.02559226,0.12019220,-0.00001016,-0.00003485,0.00000875
 ,0.00033490,-0.00001562,-0.00004158,-0.00007211,0.00064416,-0.00129629
 ,-0.00007567,-0.00062523,-0.00003351,0.00009296,0.00016519,-0.00011728
 ,0.00003575,-0.00003949,0.00011820,-0.00013433,-0.00017759,-0.00015453
 ,0.00004133,0.00029188,0.00001446,0.00058147,-0.00632226,-0.00453478,-
 0.00003197,0.00004641,-0.00002553,0.00001471,-0.00002090,0.00000387,-0
 .00001015,0.00000599,-0.00002705,-0.00002484,-0.00002033,-0.00004128,0
 .00004743,0.00004588,-0.00001819,0.00000402,0.00000688,-0.00000744,0.0
 0000153,-0.00005624,-0.00004588,-0.00000404,0.00000176,-0.00000811,0.0
 0003217,-0.00004953,-0.00001144,-0.00000990,-0.00001746,0.00003207,-0.
 00000033,0.00000096,-0.00000330,0.00000262,-0.00000430,-0.00000349,0.0
 0000322,0.00000297,0.00000081,-0.00002120,0.00002592,0.00002816,0.0000
 0095,-0.00000108,-0.00000608,0.00000101,-0.00000210,-0.00000466,0.0000
 0361,-0.00000480,-0.00000166,-0.00009915,-0.00019124,-0.00015632,0.000
 04862,-0.00003808,-0.00000411,0.00000263,0.00002363,0.00003565,0.00000
 846,0.00001832,-0.00000945,0.01719558,0.00467785,-0.02712290,-0.001155
 53,0.00187859,0.00159138,-0.01166102,-0.05057265,0.02306407,-0.0124148
 9,-0.00054518,0.01648364,-0.00361008,-0.00146292,0.00942240,0.01088242
 ,0.05236544,0.00000608,0.00000924,-0.00002111,0.00018477,-0.00000977,-
 0.00003024,0.00020719,0.00055296,-0.00002749,-0.00004901,-0.00028037,-
 0.00004108,0.00004770,0.00010225,-0.00005438,0.00004179,-0.00001181,0.
 00003583,-0.00009021,-0.00006541,-0.00004712,0.00000256,0.00003483,-0.
 00000781,0.00074343,-0.00358533,-0.00093755,-0.00003234,0.00001353,0.0
 0000716,0.00002221,0.00000533,0.00001922,-0.00000695,-0.00000853,-0.00
 002117,-0.00001889,-0.00002650,-0.00004638,0.00003755,-0.00010499,-0.0
 0005446,0.00000012,-0.00000115,0.00000088,-0.00000288,-0.00002818,-0.0
 0002009,-0.00000549,-0.00000126,-0.00000159,0.00001767,-0.00003978,-0.
 00000856,0.00000234,0.00000241,0.00001025,-0.00000013,-0.00000033,-0.0
 0000071,0.00000413,0.00000075,0.00000629,0.00000121,-0.00000107,0.0000
 0270,-0.00001132,0.00001656,0.00001923,-0.00000033,-0.00000146,-0.0000
 0449,0.00000011,-0.00000126,-0.00000230,0.00000217,-0.00000287,-0.0000
 0091,-0.00001295,-0.00001142,0.00002643,-0.00004356,-0.00000835,-0.000
 01255,0.00000893,-0.00000943,-0.00001718,-0.00000088,0.00000393,0.0000
 0304,0.00629428,0.00371341,-0.01370439,-0.00123550,0.00166586,0.001900
 32,0.12255199,0.01625137,-0.26218002,0.00844317,-0.00075212,-0.0125653
 6,-0.00431427,-0.00029243,0.00724664,-0.13279470,-0.01712860,0.2805289
 6\\0.00000003,0.00000535,0.00000264,-0.00000287,0.00000470,-0.00000137
 ,0.,0.00000030,-0.00000020,-0.00000075,0.00000131,0.00000384,-0.000000
 81,-0.00000338,0.00000576,-0.00000865,-0.00000043,0.00000202,-0.000002
 53,0.00000276,-0.00000205,0.00000626,-0.00000444,-0.00000200,-0.000000
 67,0.00000182,-0.00000504,0.00000467,-0.00000199,-0.00000217,0.0000025
 0,0.00000073,-0.00000276,0.00000119,0.00000447,-0.00000315,-0.00000248
 ,0.00000454,-0.00000146,-0.00000287,0.00000170,0.00000024,0.,-0.000003
 37,0.00000004,-0.00000064,-0.00000596,0.00000160,-0.00000428,0.0000014
 4,0.00000205,-0.00000329,-0.00000269,0.00000054,0.00000249,0.00000167,
 -0.00000219,0.00000402,-0.00000014,-0.00000200,0.00000302,-0.00000193,
 -0.00000157,0.00000196,-0.00000141,0.00000024,-0.00000388,-0.00000437,
 0.00000636,-0.00000306,-0.00000512,0.00000643,-0.00000262,-0.00000758,
 0.00000426,-0.00000542,-0.00000473,0.00000528,0.00000644,-0.00000219,0
 .00000070,0.00000411,-0.00000126,-0.00000287,0.00000316,-0.00000453,-0
 .00000186,0.00000499,-0.00000298,-0.00000039,-0.00000472,-0.00000284,0
 .00000682,-0.00000097,0.00001221,-0.00000426,0.00000198,0.00000421,-0.
 00000286,0.00000266,0.00000421,-0.00000365,0.00000070,0.00000319,-0.00
 000311,0.00000033,0.00000674,-0.00000387\\\@


 THERE ARE TWO THINGS THAT EVERYBODY THINKS THEY CAN DO BETTER THAN
 ANYONE ELSE - PUNCH THE FIRE, AND EDIT A DAILY PAPER.
 -- UNCLE ESEK, "CENTURY MAGAZINE", 1885
 Job cpu time:       0 days  6 hours 23 minutes 54.2 seconds.
 File lengths (MBytes):  RWF=    766 Int=      0 D2E=      0 Chk=     19 Scr=      1
 Normal termination of Gaussian 09 at Tue Jan 10 05:11:14 2017.
