 Entering Gaussian System, Link 0=g09
 Initial command:
 /share/apps//g09/l1.exe "/scratch/Gau-39198.inp" -scrdir="/scratch/"
 Entering Link 1 = /share/apps//g09/l1.exe PID=     39199.
  
 Copyright (c) 1988,1990,1992,1993,1995,1998,2003,2009,2013,
            Gaussian, Inc.  All Rights Reserved.
  
 This is part of the Gaussian(R) 09 program.  It is based on
 the Gaussian(R) 03 system (copyright 2003, Gaussian, Inc.),
 the Gaussian(R) 98 system (copyright 1998, Gaussian, Inc.),
 the Gaussian(R) 94 system (copyright 1995, Gaussian, Inc.),
 the Gaussian 92(TM) system (copyright 1992, Gaussian, Inc.),
 the Gaussian 90(TM) system (copyright 1990, Gaussian, Inc.),
 the Gaussian 88(TM) system (copyright 1988, Gaussian, Inc.),
 the Gaussian 86(TM) system (copyright 1986, Carnegie Mellon
 University), and the Gaussian 82(TM) system (copyright 1983,
 Carnegie Mellon University). Gaussian is a federally registered
 trademark of Gaussian, Inc.
  
 This software contains proprietary and confidential information,
 including trade secrets, belonging to Gaussian, Inc.
  
 This software is provided under written license and may be
 used, copied, transmitted, or stored only in accord with that
 written license.
  
 The following legend is applicable only to US Government
 contracts under FAR:
  
                    RESTRICTED RIGHTS LEGEND
  
 Use, reproduction and disclosure by the US Government is
 subject to restrictions as set forth in subparagraphs (a)
 and (c) of the Commercial Computer Software - Restricted
 Rights clause in FAR 52.227-19.
  
 Gaussian, Inc.
 340 Quinnipiac St., Bldg. 40, Wallingford CT 06492
  
  
 ---------------------------------------------------------------
 Warning -- This program may not be used in any manner that
 competes with the business of Gaussian, Inc. or will provide
 assistance to any competitor of Gaussian, Inc.  The licensee
 of this program is prohibited from giving any competitor of
 Gaussian, Inc. access to this program.  By using this program,
 the user acknowledges that Gaussian, Inc. is engaged in the
 business of creating and licensing software in the field of
 computational chemistry and represents and warrants to the
 licensee that it is not a competitor of Gaussian, Inc. and that
 it will not use this program in any manner prohibited above.
 ---------------------------------------------------------------
  

 Cite this work as:
 Gaussian 09, Revision D.01,
 M. J. Frisch, G. W. Trucks, H. B. Schlegel, G. E. Scuseria, 
 M. A. Robb, J. R. Cheeseman, G. Scalmani, V. Barone, B. Mennucci, 
 G. A. Petersson, H. Nakatsuji, M. Caricato, X. Li, H. P. Hratchian, 
 A. F. Izmaylov, J. Bloino, G. Zheng, J. L. Sonnenberg, M. Hada, 
 M. Ehara, K. Toyota, R. Fukuda, J. Hasegawa, M. Ishida, T. Nakajima, 
 Y. Honda, O. Kitao, H. Nakai, T. Vreven, J. A. Montgomery, Jr., 
 J. E. Peralta, F. Ogliaro, M. Bearpark, J. J. Heyd, E. Brothers, 
 K. N. Kudin, V. N. Staroverov, T. Keith, R. Kobayashi, J. Normand, 
 K. Raghavachari, A. Rendell, J. C. Burant, S. S. Iyengar, J. Tomasi, 
 M. Cossi, N. Rega, J. M. Millam, M. Klene, J. E. Knox, J. B. Cross, 
 V. Bakken, C. Adamo, J. Jaramillo, R. Gomperts, R. E. Stratmann, 
 O. Yazyev, A. J. Austin, R. Cammi, C. Pomelli, J. W. Ochterski, 
 R. L. Martin, K. Morokuma, V. G. Zakrzewski, G. A. Voth, 
 P. Salvador, J. J. Dannenberg, S. Dapprich, A. D. Daniels, 
 O. Farkas, J. B. Foresman, J. V. Ortiz, J. Cioslowski, 
 and D. J. Fox, Gaussian, Inc., Wallingford CT, 2013.
 
 ******************************************
 Gaussian 09:  EM64L-G09RevD.01 24-Apr-2013
                 9-Jan-2017 
 ******************************************
 %nproc=20
 Will use up to   20 processors via shared memory.
 %mem=100GB
 %chk=Ac-4_cGalMe.chk
 -------------------------------------------------------------------
 #P PBE1PBE/6-311+G(d,p) opt optcyc=999 freq EmpiricalDispersion=GD3
 -------------------------------------------------------------------
 1/6=999,14=-1,18=20,19=15,26=3,38=1/1,3;
 2/9=110,12=2,17=6,18=5,40=1/2;
 3/5=4,6=6,7=111,11=2,16=1,25=1,30=1,71=1,74=-13,124=31/1,2,3;
 4//1;
 5/5=2,38=5/2;
 6/7=2,8=2,9=2,10=2,28=1/1;
 7//1,2,3,16;
 1/6=999,14=-1,18=20,19=15,26=3/3(2);
 2/9=110/2;
 99//99;
 2/9=110/2;
 3/5=4,6=6,7=111,11=2,16=1,25=1,30=1,71=1,74=-13,124=31/1,2,3;
 4/5=5,16=3,69=1/1;
 5/5=2,38=5/2;
 7//1,2,3,16;
 1/6=999,14=-1,18=20,19=15,26=3/3(-5);
 2/9=110/2;
 6/7=2,8=2,9=2,10=2,19=2,28=1/1;
 99/9=1/99;
 Leave Link    1 at Mon Jan  9 14:58:01 2017, MaxMem= 13421772800 cpu:         1.7
 (Enter /share/apps//g09/l101.exe)
 -------
 disacch
 -------
 Symbolic Z-matrix:
 Charge =  1 Multiplicity = 1
 C                    -1.93212   0.45206   1.02726 
 C                    -1.065    -0.63932   1.68493 
 C                     0.29414  -0.18306   2.22432 
 C                     1.12098   0.57465   1.1595 
 C                     1.01212  -0.17149  -0.19903 
 C                    -0.36864  -0.79963  -0.43379 
 O                    -0.84594  -1.56102   0.57633 
 O                     0.66062   1.91283   0.96492 
 O                     0.01173   0.61599   3.38315 
 O                    -1.53498   0.35107  -0.40907 
 H                    -1.70207   1.45958   1.38785 
 H                    -3.00171   0.22073   1.05641 
 H                    -1.62089  -1.18891   2.45316 
 H                     0.85938  -1.08155   2.51793 
 H                     2.18014   0.57274   1.46272 
 H                     1.24011   0.54885  -1.00622 
 H                    -0.48627  -1.29855  -1.40294 
 O                     1.84567  -1.31341  -0.26101 
 C                    -1.46375   1.58668  -1.21135 
 H                    -1.17379   1.26925  -2.21757 
 H                    -2.47869   1.99634  -1.22813 
 H                    -0.738     2.27246  -0.76339 
 C                     3.15846  -1.05554  -0.7927 
 H                     3.09759  -0.66529  -1.82108 
 H                     3.71781  -0.34924  -0.15878 
 H                     3.6744   -2.02087  -0.79598 
 C                     1.46577   2.92384   1.59799 
 H                     1.39571   2.87311   2.69385 
 H                     2.51948   2.83266   1.29092 
 H                     1.07261   3.88794   1.25626 
 C                     1.00462   0.59779   4.36513 
 O                     2.05288   0.01533   4.20588 
 C                     0.56608   1.37034   5.57132 
 H                    -0.15622   0.76754   6.14062 
 H                     0.06312   2.30208   5.28595 
 H                     1.43285   1.57532   6.20585 
 
 NAtoms=     36 NQM=       36 NQMF=       0 NMMI=      0 NMMIF=      0
                NMic=       0 NMicF=      0.
                    Isotopes and Nuclear Properties:
 (Nuclear quadrupole moments (NQMom) in fm**2, nuclear magnetic moments (NMagM)
  in nuclear magnetons)

  Atom         1           2           3           4           5           6           7           8           9          10
 IAtWgt=          12          12          12          12          12          12          16          16          16          16
 AtmWgt=  12.0000000  12.0000000  12.0000000  12.0000000  12.0000000  12.0000000  15.9949146  15.9949146  15.9949146  15.9949146
 NucSpn=           0           0           0           0           0           0           0           0           0           0
 AtZEff=   0.0000000   0.0000000   0.0000000   0.0000000   0.0000000   0.0000000   0.0000000   0.0000000   0.0000000   0.0000000
 NQMom=    0.0000000   0.0000000   0.0000000   0.0000000   0.0000000   0.0000000   0.0000000   0.0000000   0.0000000   0.0000000
 NMagM=    0.0000000   0.0000000   0.0000000   0.0000000   0.0000000   0.0000000   0.0000000   0.0000000   0.0000000   0.0000000
 AtZNuc=   6.0000000   6.0000000   6.0000000   6.0000000   6.0000000   6.0000000   8.0000000   8.0000000   8.0000000   8.0000000

  Atom        11          12          13          14          15          16          17          18          19          20
 IAtWgt=           1           1           1           1           1           1           1          16          12           1
 AtmWgt=   1.0078250   1.0078250   1.0078250   1.0078250   1.0078250   1.0078250   1.0078250  15.9949146  12.0000000   1.0078250
 NucSpn=           1           1           1           1           1           1           1           0           0           1
 AtZEff=   0.0000000   0.0000000   0.0000000   0.0000000   0.0000000   0.0000000   0.0000000   0.0000000   0.0000000   0.0000000
 NQMom=    0.0000000   0.0000000   0.0000000   0.0000000   0.0000000   0.0000000   0.0000000   0.0000000   0.0000000   0.0000000
 NMagM=    2.7928460   2.7928460   2.7928460   2.7928460   2.7928460   2.7928460   2.7928460   0.0000000   0.0000000   2.7928460
 AtZNuc=   1.0000000   1.0000000   1.0000000   1.0000000   1.0000000   1.0000000   1.0000000   8.0000000   6.0000000   1.0000000

  Atom        21          22          23          24          25          26          27          28          29          30
 IAtWgt=           1           1          12           1           1           1          12           1           1           1
 AtmWgt=   1.0078250   1.0078250  12.0000000   1.0078250   1.0078250   1.0078250  12.0000000   1.0078250   1.0078250   1.0078250
 NucSpn=           1           1           0           1           1           1           0           1           1           1
 AtZEff=   0.0000000   0.0000000   0.0000000   0.0000000   0.0000000   0.0000000   0.0000000   0.0000000   0.0000000   0.0000000
 NQMom=    0.0000000   0.0000000   0.0000000   0.0000000   0.0000000   0.0000000   0.0000000   0.0000000   0.0000000   0.0000000
 NMagM=    2.7928460   2.7928460   0.0000000   2.7928460   2.7928460   2.7928460   0.0000000   2.7928460   2.7928460   2.7928460
 AtZNuc=   1.0000000   1.0000000   6.0000000   1.0000000   1.0000000   1.0000000   6.0000000   1.0000000   1.0000000   1.0000000

  Atom        31          32          33          34          35          36
 IAtWgt=          12          16          12           1           1           1
 AtmWgt=  12.0000000  15.9949146  12.0000000   1.0078250   1.0078250   1.0078250
 NucSpn=           0           0           0           1           1           1
 AtZEff=   0.0000000   0.0000000   0.0000000   0.0000000   0.0000000   0.0000000
 NQMom=    0.0000000   0.0000000   0.0000000   0.0000000   0.0000000   0.0000000
 NMagM=    0.0000000   0.0000000   0.0000000   2.7928460   2.7928460   2.7928460
 AtZNuc=   6.0000000   8.0000000   6.0000000   1.0000000   1.0000000   1.0000000
 Leave Link  101 at Mon Jan  9 14:58:02 2017, MaxMem= 13421772800 cpu:         3.3
 (Enter /share/apps//g09/l103.exe)

 GradGradGradGradGradGradGradGradGradGradGradGradGradGradGradGradGradGrad
 Berny optimization.
 Initialization pass.
                           ----------------------------
                           !    Initial Parameters    !
                           ! (Angstroms and Degrees)  !
 --------------------------                            --------------------------
 ! Name  Definition              Value          Derivative Info.                !
 --------------------------------------------------------------------------------
 ! R1    R(1,2)                  1.5413         estimate D2E/DX2                !
 ! R2    R(1,10)                 1.4936         estimate D2E/DX2                !
 ! R3    R(1,11)                 1.0946         estimate D2E/DX2                !
 ! R4    R(1,12)                 1.0947         estimate D2E/DX2                !
 ! R5    R(2,3)                  1.5318         estimate D2E/DX2                !
 ! R6    R(2,7)                  1.4583         estimate D2E/DX2                !
 ! R7    R(2,13)                 1.096          estimate D2E/DX2                !
 ! R8    R(3,4)                  1.5465         estimate D2E/DX2                !
 ! R9    R(3,9)                  1.4357         estimate D2E/DX2                !
 ! R10   R(3,14)                 1.1014         estimate D2E/DX2                !
 ! R11   R(4,5)                  1.5538         estimate D2E/DX2                !
 ! R12   R(4,8)                  1.4285         estimate D2E/DX2                !
 ! R13   R(4,15)                 1.1017         estimate D2E/DX2                !
 ! R14   R(5,6)                  1.535          estimate D2E/DX2                !
 ! R15   R(5,16)                 1.1056         estimate D2E/DX2                !
 ! R16   R(5,18)                 1.4151         estimate D2E/DX2                !
 ! R17   R(6,7)                  1.352          estimate D2E/DX2                !
 ! R18   R(6,10)                 1.6386         estimate D2E/DX2                !
 ! R19   R(6,17)                 1.0964         estimate D2E/DX2                !
 ! R20   R(8,27)                 1.4392         estimate D2E/DX2                !
 ! R21   R(9,31)                 1.3966         estimate D2E/DX2                !
 ! R22   R(10,19)                1.4749         estimate D2E/DX2                !
 ! R23   R(18,23)                1.4397         estimate D2E/DX2                !
 ! R24   R(19,20)                1.0942         estimate D2E/DX2                !
 ! R25   R(19,21)                1.0946         estimate D2E/DX2                !
 ! R26   R(19,22)                1.0944         estimate D2E/DX2                !
 ! R27   R(23,24)                1.1016         estimate D2E/DX2                !
 ! R28   R(23,25)                1.1016         estimate D2E/DX2                !
 ! R29   R(23,26)                1.0946         estimate D2E/DX2                !
 ! R30   R(27,28)                1.0993         estimate D2E/DX2                !
 ! R31   R(27,29)                1.1013         estimate D2E/DX2                !
 ! R32   R(27,30)                1.0958         estimate D2E/DX2                !
 ! R33   R(31,32)                1.2097         estimate D2E/DX2                !
 ! R34   R(31,33)                1.498          estimate D2E/DX2                !
 ! R35   R(33,34)                1.0996         estimate D2E/DX2                !
 ! R36   R(33,35)                1.0966         estimate D2E/DX2                !
 ! R37   R(33,36)                1.0936         estimate D2E/DX2                !
 ! A1    A(2,1,10)             102.2904         estimate D2E/DX2                !
 ! A2    A(2,1,11)             113.1399         estimate D2E/DX2                !
 ! A3    A(2,1,12)             112.8732         estimate D2E/DX2                !
 ! A4    A(10,1,11)            108.8538         estimate D2E/DX2                !
 ! A5    A(10,1,12)            105.73           estimate D2E/DX2                !
 ! A6    A(11,1,12)            113.0227         estimate D2E/DX2                !
 ! A7    A(1,2,3)              116.01           estimate D2E/DX2                !
 ! A8    A(1,2,7)              101.9866         estimate D2E/DX2                !
 ! A9    A(1,2,13)             111.6428         estimate D2E/DX2                !
 ! A10   A(3,2,7)              108.8247         estimate D2E/DX2                !
 ! A11   A(3,2,13)             110.6445         estimate D2E/DX2                !
 ! A12   A(7,2,13)             106.9846         estimate D2E/DX2                !
 ! A13   A(2,3,4)              112.2022         estimate D2E/DX2                !
 ! A14   A(2,3,9)              105.9902         estimate D2E/DX2                !
 ! A15   A(2,3,14)             107.8337         estimate D2E/DX2                !
 ! A16   A(4,3,9)              112.8456         estimate D2E/DX2                !
 ! A17   A(4,3,14)             107.991          estimate D2E/DX2                !
 ! A18   A(9,3,14)             109.8662         estimate D2E/DX2                !
 ! A19   A(3,4,5)              109.2251         estimate D2E/DX2                !
 ! A20   A(3,4,8)              112.3628         estimate D2E/DX2                !
 ! A21   A(3,4,15)             108.884          estimate D2E/DX2                !
 ! A22   A(5,4,8)              107.9498         estimate D2E/DX2                !
 ! A23   A(5,4,15)             107.8886         estimate D2E/DX2                !
 ! A24   A(8,4,15)             110.4227         estimate D2E/DX2                !
 ! A25   A(4,5,6)              113.1573         estimate D2E/DX2                !
 ! A26   A(4,5,16)             108.1207         estimate D2E/DX2                !
 ! A27   A(4,5,18)             112.6143         estimate D2E/DX2                !
 ! A28   A(6,5,16)             109.904          estimate D2E/DX2                !
 ! A29   A(6,5,18)             101.1241         estimate D2E/DX2                !
 ! A30   A(16,5,18)            111.8571         estimate D2E/DX2                !
 ! A31   A(5,6,7)              115.706          estimate D2E/DX2                !
 ! A32   A(5,6,10)             110.5237         estimate D2E/DX2                !
 ! A33   A(5,6,17)             114.7038         estimate D2E/DX2                !
 ! A34   A(7,6,10)              97.6383         estimate D2E/DX2                !
 ! A35   A(7,6,17)             111.487          estimate D2E/DX2                !
 ! A36   A(10,6,17)            104.8645         estimate D2E/DX2                !
 ! A37   A(2,7,6)              105.3713         estimate D2E/DX2                !
 ! A38   A(4,8,27)             114.7007         estimate D2E/DX2                !
 ! A39   A(3,9,31)             114.8627         estimate D2E/DX2                !
 ! A40   A(1,10,6)             104.551          estimate D2E/DX2                !
 ! A41   A(1,10,19)            118.6375         estimate D2E/DX2                !
 ! A42   A(6,10,19)            123.0731         estimate D2E/DX2                !
 ! A43   A(5,18,23)            114.1266         estimate D2E/DX2                !
 ! A44   A(10,19,20)           105.6623         estimate D2E/DX2                !
 ! A45   A(10,19,21)           106.086          estimate D2E/DX2                !
 ! A46   A(10,19,22)           109.5319         estimate D2E/DX2                !
 ! A47   A(20,19,21)           109.8874         estimate D2E/DX2                !
 ! A48   A(20,19,22)           112.4862         estimate D2E/DX2                !
 ! A49   A(21,19,22)           112.7456         estimate D2E/DX2                !
 ! A50   A(18,23,24)           110.9671         estimate D2E/DX2                !
 ! A51   A(18,23,25)           111.4276         estimate D2E/DX2                !
 ! A52   A(18,23,26)           105.8407         estimate D2E/DX2                !
 ! A53   A(24,23,25)           109.7619         estimate D2E/DX2                !
 ! A54   A(24,23,26)           109.6135         estimate D2E/DX2                !
 ! A55   A(25,23,26)           109.1373         estimate D2E/DX2                !
 ! A56   A(8,27,28)            111.7433         estimate D2E/DX2                !
 ! A57   A(8,27,29)            110.7604         estimate D2E/DX2                !
 ! A58   A(8,27,30)            106.2694         estimate D2E/DX2                !
 ! A59   A(28,27,29)           109.5794         estimate D2E/DX2                !
 ! A60   A(28,27,30)           109.1847         estimate D2E/DX2                !
 ! A61   A(29,27,30)           109.2177         estimate D2E/DX2                !
 ! A62   A(9,31,32)            121.9891         estimate D2E/DX2                !
 ! A63   A(9,31,33)            110.5673         estimate D2E/DX2                !
 ! A64   A(32,31,33)           127.443          estimate D2E/DX2                !
 ! A65   A(31,33,34)           109.0534         estimate D2E/DX2                !
 ! A66   A(31,33,35)           111.2794         estimate D2E/DX2                !
 ! A67   A(31,33,36)           109.3799         estimate D2E/DX2                !
 ! A68   A(34,33,35)           107.4112         estimate D2E/DX2                !
 ! A69   A(34,33,36)           108.843          estimate D2E/DX2                !
 ! A70   A(35,33,36)           110.8093         estimate D2E/DX2                !
 ! D1    D(10,1,2,3)            91.9247         estimate D2E/DX2                !
 ! D2    D(10,1,2,7)           -26.1511         estimate D2E/DX2                !
 ! D3    D(10,1,2,13)         -140.0747         estimate D2E/DX2                !
 ! D4    D(11,1,2,3)           -24.9972         estimate D2E/DX2                !
 ! D5    D(11,1,2,7)          -143.0729         estimate D2E/DX2                !
 ! D6    D(11,1,2,13)          103.0035         estimate D2E/DX2                !
 ! D7    D(12,1,2,3)          -154.9308         estimate D2E/DX2                !
 ! D8    D(12,1,2,7)            86.9935         estimate D2E/DX2                !
 ! D9    D(12,1,2,13)          -26.9302         estimate D2E/DX2                !
 ! D10   D(2,1,10,6)            -2.6274         estimate D2E/DX2                !
 ! D11   D(2,1,10,19)         -144.2663         estimate D2E/DX2                !
 ! D12   D(11,1,10,6)          117.3324         estimate D2E/DX2                !
 ! D13   D(11,1,10,19)         -24.3065         estimate D2E/DX2                !
 ! D14   D(12,1,10,6)         -120.9639         estimate D2E/DX2                !
 ! D15   D(12,1,10,19)          97.3971         estimate D2E/DX2                !
 ! D16   D(1,2,3,4)            -52.5769         estimate D2E/DX2                !
 ! D17   D(1,2,3,9)             71.0082         estimate D2E/DX2                !
 ! D18   D(1,2,3,14)          -171.3763         estimate D2E/DX2                !
 ! D19   D(7,2,3,4)             61.6589         estimate D2E/DX2                !
 ! D20   D(7,2,3,9)           -174.756          estimate D2E/DX2                !
 ! D21   D(7,2,3,14)           -57.1404         estimate D2E/DX2                !
 ! D22   D(13,2,3,4)           178.9326         estimate D2E/DX2                !
 ! D23   D(13,2,3,9)           -57.4823         estimate D2E/DX2                !
 ! D24   D(13,2,3,14)           60.1333         estimate D2E/DX2                !
 ! D25   D(1,2,7,6)             52.513          estimate D2E/DX2                !
 ! D26   D(3,2,7,6)            -70.5811         estimate D2E/DX2                !
 ! D27   D(13,2,7,6)           169.8409         estimate D2E/DX2                !
 ! D28   D(2,3,4,5)            -43.1775         estimate D2E/DX2                !
 ! D29   D(2,3,4,8)             76.5845         estimate D2E/DX2                !
 ! D30   D(2,3,4,15)          -160.765          estimate D2E/DX2                !
 ! D31   D(9,3,4,5)           -162.8347         estimate D2E/DX2                !
 ! D32   D(9,3,4,8)            -43.0726         estimate D2E/DX2                !
 ! D33   D(9,3,4,15)            79.5779         estimate D2E/DX2                !
 ! D34   D(14,3,4,5)            75.5291         estimate D2E/DX2                !
 ! D35   D(14,3,4,8)          -164.7089         estimate D2E/DX2                !
 ! D36   D(14,3,4,15)          -42.0584         estimate D2E/DX2                !
 ! D37   D(2,3,9,31)           150.4423         estimate D2E/DX2                !
 ! D38   D(4,3,9,31)           -86.3775         estimate D2E/DX2                !
 ! D39   D(14,3,9,31)           34.1927         estimate D2E/DX2                !
 ! D40   D(3,4,5,6)             35.631          estimate D2E/DX2                !
 ! D41   D(3,4,5,16)           157.6076         estimate D2E/DX2                !
 ! D42   D(3,4,5,18)           -78.2907         estimate D2E/DX2                !
 ! D43   D(8,4,5,6)            -86.8166         estimate D2E/DX2                !
 ! D44   D(8,4,5,16)            35.16           estimate D2E/DX2                !
 ! D45   D(8,4,5,18)           159.2617         estimate D2E/DX2                !
 ! D46   D(15,4,5,6)           153.8434         estimate D2E/DX2                !
 ! D47   D(15,4,5,16)          -84.18           estimate D2E/DX2                !
 ! D48   D(15,4,5,18)           39.9217         estimate D2E/DX2                !
 ! D49   D(3,4,8,27)           102.4715         estimate D2E/DX2                !
 ! D50   D(5,4,8,27)          -137.0275         estimate D2E/DX2                !
 ! D51   D(15,4,8,27)          -19.3068         estimate D2E/DX2                !
 ! D52   D(4,5,6,7)            -50.3464         estimate D2E/DX2                !
 ! D53   D(4,5,6,10)            59.3923         estimate D2E/DX2                !
 ! D54   D(4,5,6,17)           177.6689         estimate D2E/DX2                !
 ! D55   D(16,5,6,7)          -171.3192         estimate D2E/DX2                !
 ! D56   D(16,5,6,10)          -61.5806         estimate D2E/DX2                !
 ! D57   D(16,5,6,17)           56.6961         estimate D2E/DX2                !
 ! D58   D(18,5,6,7)            70.3397         estimate D2E/DX2                !
 ! D59   D(18,5,6,10)         -179.9217         estimate D2E/DX2                !
 ! D60   D(18,5,6,17)          -61.6451         estimate D2E/DX2                !
 ! D61   D(4,5,18,23)          -91.0768         estimate D2E/DX2                !
 ! D62   D(6,5,18,23)          147.8539         estimate D2E/DX2                !
 ! D63   D(16,5,18,23)          30.9362         estimate D2E/DX2                !
 ! D64   D(5,6,7,2)             65.8995         estimate D2E/DX2                !
 ! D65   D(10,6,7,2)           -51.3036         estimate D2E/DX2                !
 ! D66   D(17,6,7,2)          -160.6304         estimate D2E/DX2                !
 ! D67   D(5,6,10,1)           -88.505          estimate D2E/DX2                !
 ! D68   D(5,6,10,19)           50.9525         estimate D2E/DX2                !
 ! D69   D(7,6,10,1)            32.6599         estimate D2E/DX2                !
 ! D70   D(7,6,10,19)          172.1174         estimate D2E/DX2                !
 ! D71   D(17,6,10,1)          147.3657         estimate D2E/DX2                !
 ! D72   D(17,6,10,19)         -73.1768         estimate D2E/DX2                !
 ! D73   D(4,8,27,28)          -68.207          estimate D2E/DX2                !
 ! D74   D(4,8,27,29)           54.2737         estimate D2E/DX2                !
 ! D75   D(4,8,27,30)          172.7847         estimate D2E/DX2                !
 ! D76   D(3,9,31,32)            4.2538         estimate D2E/DX2                !
 ! D77   D(3,9,31,33)         -175.4823         estimate D2E/DX2                !
 ! D78   D(1,10,19,20)        -179.1122         estimate D2E/DX2                !
 ! D79   D(1,10,19,21)         -62.4622         estimate D2E/DX2                !
 ! D80   D(1,10,19,22)          59.4935         estimate D2E/DX2                !
 ! D81   D(6,10,19,20)          46.6834         estimate D2E/DX2                !
 ! D82   D(6,10,19,21)         163.3334         estimate D2E/DX2                !
 ! D83   D(6,10,19,22)         -74.7109         estimate D2E/DX2                !
 ! D84   D(5,18,23,24)         -60.1804         estimate D2E/DX2                !
 ! D85   D(5,18,23,25)          62.4598         estimate D2E/DX2                !
 ! D86   D(5,18,23,26)        -179.0224         estimate D2E/DX2                !
 ! D87   D(9,31,33,34)          76.2394         estimate D2E/DX2                !
 ! D88   D(9,31,33,35)         -42.0708         estimate D2E/DX2                !
 ! D89   D(9,31,33,36)        -164.8328         estimate D2E/DX2                !
 ! D90   D(32,31,33,34)       -103.4787         estimate D2E/DX2                !
 ! D91   D(32,31,33,35)        138.2111         estimate D2E/DX2                !
 ! D92   D(32,31,33,36)         15.4491         estimate D2E/DX2                !
 --------------------------------------------------------------------------------
 Trust Radius=3.00D-01 FncErr=1.00D-07 GrdErr=1.00D-06
 Number of steps in this run=    216 maximum allowed number of steps=    216.
 GradGradGradGradGradGradGradGradGradGradGradGradGradGradGradGradGradGrad

 Leave Link  103 at Mon Jan  9 14:58:02 2017, MaxMem= 13421772800 cpu:         0.2
 (Enter /share/apps//g09/l202.exe)
                          Input orientation:                          
 ---------------------------------------------------------------------
 Center     Atomic      Atomic             Coordinates (Angstroms)
 Number     Number       Type             X           Y           Z
 ---------------------------------------------------------------------
      1          6           0       -1.932120    0.452060    1.027260
      2          6           0       -1.065000   -0.639320    1.684930
      3          6           0        0.294140   -0.183060    2.224320
      4          6           0        1.120980    0.574650    1.159500
      5          6           0        1.012120   -0.171490   -0.199030
      6          6           0       -0.368640   -0.799630   -0.433790
      7          8           0       -0.845940   -1.561020    0.576330
      8          8           0        0.660620    1.912830    0.964920
      9          8           0        0.011730    0.615990    3.383150
     10          8           0       -1.534980    0.351070   -0.409070
     11          1           0       -1.702070    1.459580    1.387850
     12          1           0       -3.001710    0.220730    1.056410
     13          1           0       -1.620890   -1.188910    2.453160
     14          1           0        0.859380   -1.081550    2.517930
     15          1           0        2.180140    0.572740    1.462720
     16          1           0        1.240110    0.548850   -1.006220
     17          1           0       -0.486270   -1.298550   -1.402940
     18          8           0        1.845670   -1.313410   -0.261010
     19          6           0       -1.463750    1.586680   -1.211350
     20          1           0       -1.173790    1.269250   -2.217570
     21          1           0       -2.478690    1.996340   -1.228130
     22          1           0       -0.738000    2.272460   -0.763390
     23          6           0        3.158460   -1.055540   -0.792700
     24          1           0        3.097590   -0.665290   -1.821080
     25          1           0        3.717810   -0.349240   -0.158780
     26          1           0        3.674400   -2.020870   -0.795980
     27          6           0        1.465770    2.923840    1.597990
     28          1           0        1.395710    2.873110    2.693850
     29          1           0        2.519480    2.832660    1.290920
     30          1           0        1.072610    3.887940    1.256260
     31          6           0        1.004620    0.597790    4.365130
     32          8           0        2.052880    0.015330    4.205880
     33          6           0        0.566080    1.370340    5.571320
     34          1           0       -0.156220    0.767540    6.140620
     35          1           0        0.063120    2.302080    5.285950
     36          1           0        1.432850    1.575320    6.205850
 ---------------------------------------------------------------------
                    Distance matrix (angstroms):
                    1          2          3          4          5
     1  C    0.000000
     2  C    1.541278   0.000000
     3  C    2.606255   1.531789   0.000000
     4  C    3.058420   2.555055   1.546490   0.000000
     5  C    3.249792   2.842991   2.527500   1.553763   0.000000
     6  C    2.479085   2.235977   2.808021   2.578020   1.534982
     7  O    2.331441   1.458257   2.431960   2.961410   2.446296
     8  O    2.976581   3.163803   2.472479   1.428467   2.413032
     9  O    3.058700   2.370464   1.435661   2.485310   3.801699
    10  O    1.493641   2.363597   3.250495   3.092656   2.608621
    11  H    1.094552   2.213480   2.717131   2.967298   3.541949
    12  H    1.094708   2.210332   3.519899   4.139138   4.223837
    13  H    2.196096   1.096011   2.175188   3.507357   3.873241
    14  H    3.516608   2.143057   1.101357   2.157954   2.869392
    15  H    4.137012   3.471225   2.169853   1.101710   2.163230
    16  H    3.769277   3.737321   3.444843   2.169147   1.105633
    17  H    3.325807   3.210055   3.874322   3.557841   2.228191
    18  O    4.364427   3.565541   3.140351   2.471395   1.415143
    19  C    2.553059   3.674577   4.245702   3.650474   3.200920
    20  H    3.431004   4.345570   4.898409   4.141623   3.305819
    21  H    2.787530   4.175062   4.935360   4.547483   4.236070
    22  H    2.818902   3.818332   4.002662   3.167944   3.058482
    23  C    5.612407   4.914214   4.250642   3.258823   2.395989
    24  H    5.887231   5.442420   4.945416   3.785273   2.687763
    25  H    5.828420   5.134071   4.174721   3.055317   2.711821
    26  H    6.393172   5.524989   4.891412   4.132866   3.296102
    27  C    4.240411   4.371323   3.379029   2.414508   3.607790
    28  H    4.439984   4.405698   3.282391   2.777161   4.217284
    29  H    5.055049   5.005835   3.862375   2.659264   3.676548
    30  H    4.570133   5.024860   4.256313   3.315055   4.312830
    31  C    4.448264   3.605169   2.386960   3.207825   4.628542
    32  O    5.116110   4.062626   2.656898   3.234456   4.530046
    33  C    5.266187   4.669388   3.699921   4.517211   5.989418
    34  H    5.422158   4.760075   4.055104   5.145872   6.514442
    35  H    5.053711   4.784541   3.950047   4.596811   6.091318
    36  H    6.277143   5.619840   4.499016   5.154052   6.652131
                    6          7          8          9         10
     6  C    0.000000
     7  O    1.351988   0.000000
     8  O    3.220746   3.806358   0.000000
     9  O    4.088727   3.654204   2.819697   0.000000
    10  O    1.638618   2.258734   3.024500   4.104074   0.000000
    11  H    3.193812   3.242769   2.442664   2.762241   2.117932
    12  H    3.192944   2.837685   4.035373   3.827632   2.077479
    13  H    3.170828   2.064341   4.128067   2.605378   3.251350
    14  H    3.209387   2.628273   3.379002   2.085368   4.043846
    15  H    3.460698   3.807332   2.086285   2.896882   4.165916
    16  H    2.175810   3.362681   2.466099   4.558508   2.845493
    17  H    1.096362   2.028734   4.151515   5.178815   2.192901
    18  O    2.279691   2.829702   3.649092   4.512851   3.771102
    19  C    2.738310   3.672261   3.058672   4.922267   1.474944
    20  H    2.847877   3.990463   3.729276   5.761968   2.060142
    21  H    3.591759   4.310076   3.830367   5.419544   2.066001
    22  H    3.111720   4.062274   2.252227   4.527668   2.110085
    23  C    3.554538   4.262039   4.259067   5.489412   4.914682
    24  H    3.735957   4.701206   4.510801   6.184515   4.948481
    25  H    4.120383   4.778767   3.965611   5.216509   5.305175
    26  H    4.238960   4.746385   5.259053   6.150879   5.737024
    27  C    4.621409   5.147986   1.439161   3.259939   4.433050
    28  H    5.136544   5.400962   2.109904   2.735896   4.957594
    29  H    4.950696   5.580422   2.099458   3.947133   5.048455
    30  H    5.187175   5.816726   2.038547   4.044105   4.699181
    31  C    5.183460   4.737092   3.661843   1.396584   5.413264
    32  O    5.296646   4.905270   4.005336   2.281221   5.855188
    33  C    6.453202   5.961258   4.639198   2.380008   6.420158
    34  H    6.761953   6.071180   5.363468   2.766734   6.706181
    35  H    6.520924   6.158770   4.379477   2.542870   6.228452
    36  H    7.278089   6.835277   5.308258   3.302655   7.352821
                   11         12         13         14         15
    11  H    0.000000
    12  H    1.825833   0.000000
    13  H    2.855867   2.417573   0.000000
    14  H    3.780932   4.328971   2.483437   0.000000
    15  H    3.982919   5.209661   4.304905   2.365280   0.000000
    16  H    3.900952   4.728122   4.813776   3.901640   2.641948
    17  H    4.107793   3.831978   4.021056   4.151034   4.338603
    18  O    4.795276   5.252264   4.404459   2.957877   2.576951
    19  C    2.613196   3.061679   4.599699   5.140420   4.632133
    20  H    3.648885   3.893537   5.296996   5.664362   5.027774
    21  H    2.781115   2.940317   4.943029   5.886347   5.565250
    22  H    2.493599   3.556072   4.806950   4.956618   4.044769
    23  C    5.891127   6.557116   5.778891   4.030722   2.948784
    24  H    6.152157   6.801944   6.388064   4.899986   3.627365
    25  H    5.919374   6.852263   6.002416   3.983927   2.417383
    26  H    6.766763   7.281934   6.268107   4.448445   3.749847
    27  C    3.496202   5.249618   5.212821   4.154172   2.460954
    28  H    3.646909   5.390142   5.065354   3.994738   2.724466
    29  H    4.440296   6.112341   5.887826   4.425215   2.291704
    30  H    3.689593   5.485294   5.870427   5.131580   3.501400
    31  C    4.114979   5.209653   3.706916   2.500685   3.131527
    32  O    4.911904   5.959046   4.244857   2.340249   2.802111
    33  C    4.759610   5.868146   4.588629   3.926956   4.485750
    34  H    5.045532   5.851923   4.423835   4.192190   5.232521
    35  H    4.361294   5.622651   4.800792   4.443525   4.699944
    36  H    5.749282   6.929428   5.572161   4.581329   4.905190
                   16         17         18         19         20
    16  H    0.000000
    17  H    2.559426   0.000000
    18  O    2.095245   2.596569   0.000000
    19  C    2.903451   3.052331   4.501770   0.000000
    20  H    2.795221   2.780270   4.428927   1.094220   0.000000
    21  H    3.996742   3.854426   5.530810   1.094626   1.791763
    22  H    2.634904   3.636551   4.448168   1.094384   1.819611
    23  C    2.509925   3.703445   1.439656   5.340545   5.118915
    24  H    2.363972   3.663320   2.102661   5.123374   4.705777
    25  H    2.768342   4.485913   2.108313   5.630653   5.548502
    26  H    3.545903   4.266301   2.032473   6.291863   6.029159
    27  C    3.531771   5.535758   4.642682   4.273462   4.925794
    28  H    4.372289   6.142335   5.143988   5.008193   5.770333
    29  H    3.482733   5.775665   4.477991   4.866204   5.328602
    30  H    4.036879   6.033335   5.473004   4.221140   4.896054
    31  C    5.376732   6.252159   5.075551   6.178016   6.966223
    32  O    5.302002   6.295429   4.664932   6.646970   7.296878
    33  C    6.662822   7.541268   6.546445   7.083193   7.981489
    34  H    7.285251   7.828343   7.022733   7.512129   8.434839
    35  H    6.637057   7.616273   6.856969   6.712528   7.674601
    36  H    7.287300   8.356784   7.094749   7.962743   8.822826
                   21         22         23         24         25
    21  H    0.000000
    22  H    1.822698   0.000000
    23  C    6.425032   5.124338   0.000000
    24  H    6.207315   4.945790   1.101620   0.000000
    25  H    6.711324   5.205104   1.101629   1.802166   0.000000
    26  H    7.361063   6.156543   1.094562   1.794753   1.789485
    27  C    4.940240   3.294998   4.941261   5.218690   4.344074
    28  H    5.582260   4.106824   5.540542   5.983416   4.890111
    29  H    5.659218   3.891682   4.457339   4.717458   3.696229
    30  H    4.728856   3.157067   5.743431   5.856831   5.191639
    31  C    6.736019   5.669476   5.828871   6.651698   5.359480
    32  O    7.347652   6.130032   5.230188   6.154584   4.685633
    33  C    7.476297   6.530160   7.287392   8.074646   6.761982
    34  H    7.823189   7.090036   7.898206   8.719458   7.479154
    35  H    6.999108   6.102228   7.602942   8.277872   7.073284
    36  H    8.410794   7.332728   7.673256   8.498429   7.030895
                   26         27         28         29         30
    26  H    0.000000
    27  C    5.921089   0.000000
    28  H    6.428249   1.099268   0.000000
    29  H    5.407934   1.101322   1.797973   0.000000
    30  H    6.774588   1.095830   1.789117   1.791159   0.000000
    31  C    6.373552   3.644205   2.850124   4.091480   4.527116
    32  O    5.638620   3.950344   3.299244   4.080693   4.965712
    33  C    7.855219   4.360064   3.350588   4.927066   5.021417
    34  H    8.400315   5.283556   4.326908   5.911318   5.924854
    35  H    8.289699   3.994379   2.969992   4.719691   4.446619
    36  H    8.184299   4.801246   3.744300   5.188276   5.475073
                   31         32         33         34         35
    31  C    0.000000
    32  O    1.209739   0.000000
    33  C    1.498014   2.431266   0.000000
    34  H    2.128081   3.031363   1.099631   0.000000
    35  H    2.153819   3.217906   1.096606   1.770137   0.000000
    36  H    2.127721   2.611108   1.093588   1.783790   1.802930
                   36
    36  H    0.000000
 Stoichiometry    C11H19O6(1+)
 Framework group  C1[X(C11H19O6)]
 Deg. of freedom   102
 Full point group                 C1      NOp   1
 Largest Abelian subgroup         C1      NOp   1
 Largest concise Abelian subgroup C1      NOp   1
                         Standard orientation:                         
 ---------------------------------------------------------------------
 Center     Atomic      Atomic             Coordinates (Angstroms)
 Number     Number       Type             X           Y           Z
 ---------------------------------------------------------------------
      1          6           0       -0.695416   -2.179147   -0.470868
      2          6           0       -0.156661   -1.072775   -1.398887
      3          6           0        0.704031    0.004065   -0.731053
      4          6           0        0.000984    0.639256    0.491194
      5          6           0       -1.487666    0.912812    0.140096
      6          6           0       -2.098970   -0.158234   -0.773872
      7          8           0       -1.387089   -0.458149   -1.883443
      8          8           0        0.033618   -0.210274    1.639128
      9          8           0        1.943764   -0.635127   -0.391027
     10          8           0       -2.023731   -1.632138   -0.061819
     11          1           0       -0.082609   -2.326104    0.424071
     12          1           0       -0.909417   -3.112580   -1.001240
     13          1           0        0.357122   -1.491864   -2.271602
     14          1           0        0.883737    0.799392   -1.471424
     15          1           0        0.479144    1.606265    0.714854
     16          1           0       -2.058619    0.971758    1.085063
     17          1           0       -3.160543   -0.011537   -1.005285
     18          8           0       -1.655723    2.074536   -0.650336
     19          6           0       -2.501990   -1.888841    1.309615
     20          1           0       -3.485906   -1.414282    1.373022
     21          1           0       -2.606205   -2.975053    1.396146
     22          1           0       -1.789776   -1.473434    2.029242
     23          6           0       -1.874050    3.277252    0.110201
     24          1           0       -2.782417    3.193662    0.727815
     25          1           0       -1.008604    3.511280    0.750374
     26          1           0       -2.002571    4.077046   -0.625924
     27          6           0        1.010391    0.155800    2.630636
     28          1           0        2.036481   -0.000879    2.268721
     29          1           0        0.882803    1.206504    2.935024
     30          1           0        0.829887   -0.494343    3.494104
     31          6           0        3.056809    0.208397   -0.384267
     32          8           0        2.959444    1.399437   -0.572453
     33          6           0        4.308236   -0.573637   -0.126590
     34          1           0        4.589915   -1.112423   -1.042862
     35          1           0        4.154958   -1.322024    0.660154
     36          1           0        5.116165    0.112645    0.142117
 ---------------------------------------------------------------------
 Rotational constants (GHZ):      0.6275593      0.3800131      0.3339210
 Leave Link  202 at Mon Jan  9 14:58:02 2017, MaxMem= 13421772800 cpu:         1.0
 (Enter /share/apps//g09/l301.exe)
 Standard basis: 6-311+G(d,p) (5D, 7F)
 Ernie: Thresh=  0.10000D-02 Tol=  0.10000D-05 Strict=F.
 There are   505 symmetry adapted cartesian basis functions of A   symmetry.
 There are   488 symmetry adapted basis functions of A   symmetry.
   488 basis functions,   764 primitive gaussians,   505 cartesian basis functions
    66 alpha electrons       66 beta electrons
       nuclear repulsion energy      1445.9888788424 Hartrees.
 IExCor= 1009 DFT=T Ex+Corr=PBE1PBE ExCW=0 ScaHFX=  0.250000
 ScaDFX=  0.750000  0.750000  1.000000  1.000000 ScalE2=  1.000000  1.000000
 IRadAn=      0 IRanWt=     -1 IRanGd=            0 ICorTp=0 IEmpDi=131
 NAtoms=   36 NActive=   36 NUniq=   36 SFac= 1.00D+00 NAtFMM=   60 NAOKFM=F Big=F
 Integral buffers will be    131072 words long.
 Raffenetti 2 integral format.
 Two-electron integral symmetry is turned on.
 R6Disp:  Grimme-D3 Dispersion energy=       -0.0264816876 Hartrees.
 Nuclear repulsion after empirical dispersion term =     1445.9623971547 Hartrees.
 Leave Link  301 at Mon Jan  9 14:58:02 2017, MaxMem= 13421772800 cpu:         1.0
 (Enter /share/apps//g09/l302.exe)
 NPDir=0 NMtPBC=     1 NCelOv=     1 NCel=       1 NClECP=     1 NCelD=      1
         NCelK=      1 NCelE2=     1 NClLst=     1 CellRange=     0.0.
 One-electron integrals computed using PRISM.
 NBasis=   488 RedAO= T EigKep=  2.83D-06  NBF=   488
 NBsUse=   488 1.00D-06 EigRej= -1.00D+00 NBFU=   488
 Precomputing XC quadrature grid using
 IXCGrd= 4 IRadAn=           0 IRanWt=          -1 IRanGd=           0 AccXCQ= 0.00D+00.
 Generated NRdTot=       0 NPtTot=           0 NUsed=           0 NTot=          32
 NSgBfM=   504   505   505   505   505 MxSgAt=    36 MxSgA2=    36.
 Leave Link  302 at Mon Jan  9 14:58:03 2017, MaxMem= 13421772800 cpu:        12.0
 (Enter /share/apps//g09/l303.exe)
 DipDrv:  MaxL=1.
 Leave Link  303 at Mon Jan  9 14:58:04 2017, MaxMem= 13421772800 cpu:         6.2
 (Enter /share/apps//g09/l401.exe)
 ExpMin= 4.38D-02 ExpMax= 8.59D+03 ExpMxC= 1.30D+03 IAcc=2 IRadAn=         4 AccDes= 0.00D+00
 Harris functional with IExCor= 1009 and IRadAn=       4 diagonalized for initial guess.
 HarFok:  IExCor= 1009 AccDes= 0.00D+00 IRadAn=         4 IDoV= 1 UseB2=F ITyADJ=14
 ICtDFT=  3500011 ScaDFX=  1.000000  1.000000  1.000000  1.000000
 FoFCou: FMM=F IPFlag=           0 FMFlag=      100000 FMFlg1=           0
         NFxFlg=           0 DoJE=T BraDBF=F KetDBF=T FulRan=T
         wScrn=  0.000000 ICntrl=     500 IOpCl=  0 I1Cent=   200000004 NGrid=           0
         NMat0=    1 NMatS0=      1 NMatT0=    0 NMatD0=    1 NMtDS0=    0 NMtDT0=    0
 Petite list used in FoFCou.
 Harris En= -881.097384140022    
 JPrj=0 DoOrth=F DoCkMO=F.
 Leave Link  401 at Mon Jan  9 14:58:05 2017, MaxMem= 13421772800 cpu:        22.9
 (Enter /share/apps//g09/l502.exe)
 Closed shell SCF:
 Using DIIS extrapolation, IDIIS=  1040.
 Integral symmetry usage will be decided dynamically.
 Keep R1 ints in memory in canonical form, NReq=7183787934.
 IVT=      797493 IEndB=      797493 NGot= 13421772800 MDV=  6302761722
 LenX=  6302761722 LenY=  6302506192
 Requested convergence on RMS density matrix=1.00D-08 within 128 cycles.
 Requested convergence on MAX density matrix=1.00D-06.
 Requested convergence on             energy=1.00D-06.
 No special actions if energy rises.
 FoFCou: FMM=F IPFlag=           0 FMFlag=           0 FMFlg1=           0
         NFxFlg=           0 DoJE=F BraDBF=F KetDBF=F FulRan=T
         wScrn=  0.000000 ICntrl=     600 IOpCl=  0 I1Cent=           0 NGrid=           0
         NMat0=    1 NMatS0= 119316 NMatT0=    0 NMatD0=    1 NMtDS0=    0 NMtDT0=    0
 Symmetry not used in FoFCou.

 Cycle   1  Pass 1  IDiag  1:
 E= -880.625146179425    
 DIIS: error= 1.80D-02 at cycle   1 NSaved=   1.
 NSaved= 1 IEnMin= 1 EnMin= -880.625146179425     IErMin= 1 ErrMin= 1.80D-02
 ErrMax= 1.80D-02  0.00D+00 EMaxC= 1.00D-01 BMatC= 3.99D-01 BMatP= 3.99D-01
 IDIUse=3 WtCom= 8.20D-01 WtEn= 1.80D-01
 Coeff-Com:  0.100D+01
 Coeff-En:   0.100D+01
 Coeff:      0.100D+01
 Gap=     0.262 Goal=   None    Shift=    0.000
 GapD=    0.262 DampG=1.000 DampE=0.500 DampFc=0.5000 IDamp=-1.
 Damping current iteration by 5.00D-01
 RMSDP=7.67D-03 MaxDP=5.92D-01              OVMax= 2.49D-01

 Cycle   2  Pass 1  IDiag  1:
 E= -880.729928329888     Delta-E=       -0.104782150464 Rises=F Damp=T
 DIIS: error= 8.33D-03 at cycle   2 NSaved=   2.
 NSaved= 2 IEnMin= 2 EnMin= -880.729928329888     IErMin= 2 ErrMin= 8.33D-03
 ErrMax= 8.33D-03  0.00D+00 EMaxC= 1.00D-01 BMatC= 5.39D-02 BMatP= 3.99D-01
 IDIUse=3 WtCom= 9.17D-01 WtEn= 8.33D-02
 Coeff-Com:  0.117D+00 0.883D+00
 Coeff-En:   0.231D+00 0.769D+00
 Coeff:      0.126D+00 0.874D+00
 Gap=     0.304 Goal=   None    Shift=    0.000
 RMSDP=4.61D-03 MaxDP=1.03D+00 DE=-1.05D-01 OVMax= 1.50D-01

 Cycle   3  Pass 1  IDiag  1:
 E= -880.870792497834     Delta-E=       -0.140864167945 Rises=F Damp=F
 DIIS: error= 1.15D-02 at cycle   3 NSaved=   3.
 NSaved= 3 IEnMin= 3 EnMin= -880.870792497834     IErMin= 2 ErrMin= 8.33D-03
 ErrMax= 1.15D-02  0.00D+00 EMaxC= 1.00D-01 BMatC= 5.99D-02 BMatP= 5.39D-02
 IDIUse=2 WtCom= 0.00D+00 WtEn= 1.00D+00
 Coeff-En:   0.000D+00 0.000D+00 0.100D+01
 Coeff:      0.000D+00 0.000D+00 0.100D+01
 Gap=     0.253 Goal=   None    Shift=    0.000
 RMSDP=3.34D-03 MaxDP=2.97D-01 DE=-1.41D-01 OVMax= 2.18D-01

 Cycle   4  Pass 1  IDiag  1:
 E= -880.692068790489     Delta-E=        0.178723707345 Rises=F Damp=F
 DIIS: error= 2.68D-02 at cycle   4 NSaved=   4.
 NSaved= 4 IEnMin= 3 EnMin= -880.870792497834     IErMin= 2 ErrMin= 8.33D-03
 ErrMax= 2.68D-02  0.00D+00 EMaxC= 1.00D-01 BMatC= 3.02D-01 BMatP= 5.39D-02
 IDIUse=2 WtCom= 0.00D+00 WtEn= 1.00D+00
 Coeff-En:   0.000D+00 0.000D+00 0.781D+00 0.219D+00
 Coeff:      0.000D+00 0.000D+00 0.781D+00 0.219D+00
 Gap=     0.241 Goal=   None    Shift=    0.000
 RMSDP=2.03D-03 MaxDP=2.87D-01 DE= 1.79D-01 OVMax= 9.94D-02

 Cycle   5  Pass 1  IDiag  1:
 E= -880.900353795365     Delta-E=       -0.208285004877 Rises=F Damp=F
 DIIS: error= 6.44D-03 at cycle   5 NSaved=   5.
 NSaved= 5 IEnMin= 5 EnMin= -880.900353795365     IErMin= 5 ErrMin= 6.44D-03
 ErrMax= 6.44D-03  0.00D+00 EMaxC= 1.00D-01 BMatC= 2.07D-02 BMatP= 5.39D-02
 IDIUse=3 WtCom= 9.36D-01 WtEn= 6.44D-02
 Coeff-Com:  0.550D-02 0.548D-02 0.344D+00-0.214D-01 0.667D+00
 Coeff-En:   0.000D+00 0.000D+00 0.300D+00 0.000D+00 0.700D+00
 Coeff:      0.515D-02 0.513D-02 0.341D+00-0.200D-01 0.669D+00
 Gap=     0.265 Goal=   None    Shift=    0.000
 RMSDP=7.64D-04 MaxDP=1.07D-01 DE=-2.08D-01 OVMax= 2.61D-02

 Cycle   6  Pass 1  IDiag  1:
 E= -880.915333876535     Delta-E=       -0.014980081169 Rises=F Damp=F
 DIIS: error= 6.10D-04 at cycle   6 NSaved=   6.
 NSaved= 6 IEnMin= 6 EnMin= -880.915333876535     IErMin= 6 ErrMin= 6.10D-04
 ErrMax= 6.10D-04  0.00D+00 EMaxC= 1.00D-01 BMatC= 2.28D-04 BMatP= 2.07D-02
 IDIUse=3 WtCom= 9.94D-01 WtEn= 6.10D-03
 Coeff-Com: -0.240D-03 0.336D-02 0.138D+00-0.473D-01 0.418D+00 0.489D+00
 Coeff-En:   0.000D+00 0.000D+00 0.000D+00 0.000D+00 0.000D+00 0.100D+01
 Coeff:     -0.238D-03 0.334D-02 0.137D+00-0.470D-01 0.415D+00 0.492D+00
 Gap=     0.257 Goal=   None    Shift=    0.000
 RMSDP=1.46D-04 MaxDP=2.20D-02 DE=-1.50D-02 OVMax= 1.64D-03

 Cycle   7  Pass 1  IDiag  1:
 E= -880.915489484620     Delta-E=       -0.000155608086 Rises=F Damp=F
 DIIS: error= 9.58D-05 at cycle   7 NSaved=   7.
 NSaved= 7 IEnMin= 7 EnMin= -880.915489484620     IErMin= 7 ErrMin= 9.58D-05
 ErrMax= 9.58D-05  0.00D+00 EMaxC= 1.00D-01 BMatC= 1.00D-05 BMatP= 2.28D-04
 IDIUse=1 WtCom= 1.00D+00 WtEn= 0.00D+00
 Coeff-Com: -0.492D-03 0.137D-02 0.546D-01-0.258D-01 0.188D+00 0.251D+00
 Coeff-Com:  0.532D+00
 Coeff:     -0.492D-03 0.137D-02 0.546D-01-0.258D-01 0.188D+00 0.251D+00
 Coeff:      0.532D+00
 Gap=     0.256 Goal=   None    Shift=    0.000
 RMSDP=2.45D-05 MaxDP=2.52D-03 DE=-1.56D-04 OVMax= 3.72D-04

 Cycle   8  Pass 1  IDiag  1:
 E= -880.915496283953     Delta-E=       -0.000006799333 Rises=F Damp=F
 DIIS: error= 4.21D-05 at cycle   8 NSaved=   8.
 NSaved= 8 IEnMin= 8 EnMin= -880.915496283953     IErMin= 8 ErrMin= 4.21D-05
 ErrMax= 4.21D-05  0.00D+00 EMaxC= 1.00D-01 BMatC= 1.00D-06 BMatP= 1.00D-05
 IDIUse=1 WtCom= 1.00D+00 WtEn= 0.00D+00
 Coeff-Com:  0.990D-04-0.342D-03 0.687D-02-0.440D-02 0.245D-01 0.346D-01
 Coeff-Com:  0.247D+00 0.692D+00
 Coeff:      0.990D-04-0.342D-03 0.687D-02-0.440D-02 0.245D-01 0.346D-01
 Coeff:      0.247D+00 0.692D+00
 Gap=     0.256 Goal=   None    Shift=    0.000
 RMSDP=7.75D-06 MaxDP=1.46D-03 DE=-6.80D-06 OVMax= 1.66D-04

 Cycle   9  Pass 1  IDiag  1:
 E= -880.915497029566     Delta-E=       -0.000000745613 Rises=F Damp=F
 DIIS: error= 6.24D-06 at cycle   9 NSaved=   9.
 NSaved= 9 IEnMin= 9 EnMin= -880.915497029566     IErMin= 9 ErrMin= 6.24D-06
 ErrMax= 6.24D-06  0.00D+00 EMaxC= 1.00D-01 BMatC= 4.67D-08 BMatP= 1.00D-06
 IDIUse=1 WtCom= 1.00D+00 WtEn= 0.00D+00
 Coeff-Com:  0.788D-04-0.276D-03 0.108D-02-0.952D-03 0.371D-02 0.464D-02
 Coeff-Com:  0.912D-01 0.325D+00 0.576D+00
 Coeff:      0.788D-04-0.276D-03 0.108D-02-0.952D-03 0.371D-02 0.464D-02
 Coeff:      0.912D-01 0.325D+00 0.576D+00
 Gap=     0.256 Goal=   None    Shift=    0.000
 RMSDP=2.60D-06 MaxDP=4.06D-04 DE=-7.46D-07 OVMax= 2.97D-05

 Cycle  10  Pass 1  IDiag  1:
 E= -880.915497065531     Delta-E=       -0.000000035965 Rises=F Damp=F
 DIIS: error= 2.11D-06 at cycle  10 NSaved=  10.
 NSaved=10 IEnMin=10 EnMin= -880.915497065531     IErMin=10 ErrMin= 2.11D-06
 ErrMax= 2.11D-06  0.00D+00 EMaxC= 1.00D-01 BMatC= 4.23D-09 BMatP= 4.67D-08
 IDIUse=1 WtCom= 1.00D+00 WtEn= 0.00D+00
 Coeff-Com:  0.147D-04-0.577D-04-0.367D-03 0.398D-04-0.106D-02-0.196D-02
 Coeff-Com:  0.942D-02 0.585D-01 0.256D+00 0.679D+00
 Coeff:      0.147D-04-0.577D-04-0.367D-03 0.398D-04-0.106D-02-0.196D-02
 Coeff:      0.942D-02 0.585D-01 0.256D+00 0.679D+00
 Gap=     0.256 Goal=   None    Shift=    0.000
 RMSDP=7.42D-07 MaxDP=7.55D-05 DE=-3.60D-08 OVMax= 9.47D-06

 Cycle  11  Pass 1  IDiag  1:
 E= -880.915497068921     Delta-E=       -0.000000003390 Rises=F Damp=F
 DIIS: error= 6.33D-07 at cycle  11 NSaved=  11.
 NSaved=11 IEnMin=11 EnMin= -880.915497068921     IErMin=11 ErrMin= 6.33D-07
 ErrMax= 6.33D-07  0.00D+00 EMaxC= 1.00D-01 BMatC= 4.00D-10 BMatP= 4.23D-09
 IDIUse=1 WtCom= 1.00D+00 WtEn= 0.00D+00
 Coeff-Com: -0.132D-05-0.701D-06-0.298D-03 0.992D-04-0.877D-03-0.138D-02
 Coeff-Com: -0.308D-02 0.339D-02 0.749D-01 0.311D+00 0.616D+00
 Coeff:     -0.132D-05-0.701D-06-0.298D-03 0.992D-04-0.877D-03-0.138D-02
 Coeff:     -0.308D-02 0.339D-02 0.749D-01 0.311D+00 0.616D+00
 Gap=     0.256 Goal=   None    Shift=    0.000
 RMSDP=2.41D-07 MaxDP=3.36D-05 DE=-3.39D-09 OVMax= 3.62D-06

 Cycle  12  Pass 1  IDiag  1:
 E= -880.915497069240     Delta-E=       -0.000000000319 Rises=F Damp=F
 DIIS: error= 2.41D-07 at cycle  12 NSaved=  12.
 NSaved=12 IEnMin=12 EnMin= -880.915497069240     IErMin=12 ErrMin= 2.41D-07
 ErrMax= 2.41D-07  0.00D+00 EMaxC= 1.00D-01 BMatC= 5.29D-11 BMatP= 4.00D-10
 IDIUse=1 WtCom= 1.00D+00 WtEn= 0.00D+00
 Coeff-Com: -0.372D-05 0.816D-05-0.111D-03 0.378D-04-0.297D-03-0.431D-03
 Coeff-Com: -0.252D-02-0.416D-02 0.121D-01 0.888D-01 0.313D+00 0.594D+00
 Coeff:     -0.372D-05 0.816D-05-0.111D-03 0.378D-04-0.297D-03-0.431D-03
 Coeff:     -0.252D-02-0.416D-02 0.121D-01 0.888D-01 0.313D+00 0.594D+00
 Gap=     0.256 Goal=   None    Shift=    0.000
 RMSDP=5.36D-08 MaxDP=5.20D-06 DE=-3.19D-10 OVMax= 9.98D-07

 Cycle  13  Pass 1  IDiag  1:
 E= -880.915497069288     Delta-E=       -0.000000000047 Rises=F Damp=F
 DIIS: error= 4.75D-08 at cycle  13 NSaved=  13.
 NSaved=13 IEnMin=13 EnMin= -880.915497069288     IErMin=13 ErrMin= 4.75D-08
 ErrMax= 4.75D-08  0.00D+00 EMaxC= 1.00D-01 BMatC= 3.00D-12 BMatP= 5.29D-11
 IDIUse=1 WtCom= 1.00D+00 WtEn= 0.00D+00
 Coeff-Com: -0.122D-05 0.302D-05-0.638D-05 0.309D-05-0.944D-05-0.348D-05
 Coeff-Com: -0.528D-03-0.176D-02-0.360D-02-0.272D-02 0.493D-01 0.231D+00
 Coeff-Com:  0.728D+00
 Coeff:     -0.122D-05 0.302D-05-0.638D-05 0.309D-05-0.944D-05-0.348D-05
 Coeff:     -0.528D-03-0.176D-02-0.360D-02-0.272D-02 0.493D-01 0.231D+00
 Coeff:      0.728D+00
 Gap=     0.256 Goal=   None    Shift=    0.000
 RMSDP=1.59D-08 MaxDP=1.61D-06 DE=-4.73D-11 OVMax= 4.80D-07

 Cycle  14  Pass 1  IDiag  1:
 E= -880.915497069269     Delta-E=        0.000000000018 Rises=F Damp=F
 DIIS: error= 1.72D-08 at cycle  14 NSaved=  14.
 NSaved=14 IEnMin=13 EnMin= -880.915497069288     IErMin=14 ErrMin= 1.72D-08
 ErrMax= 1.72D-08  0.00D+00 EMaxC= 1.00D-01 BMatC= 3.97D-13 BMatP= 3.00D-12
 IDIUse=1 WtCom= 1.00D+00 WtEn= 0.00D+00
 Coeff-Com: -0.297D-06 0.808D-06 0.300D-05-0.393D-06 0.975D-05 0.144D-04
 Coeff-Com: -0.844D-04-0.581D-03-0.259D-02-0.821D-02-0.118D-02 0.631D-01
 Coeff-Com:  0.339D+00 0.611D+00
 Coeff:     -0.297D-06 0.808D-06 0.300D-05-0.393D-06 0.975D-05 0.144D-04
 Coeff:     -0.844D-04-0.581D-03-0.259D-02-0.821D-02-0.118D-02 0.631D-01
 Coeff:      0.339D+00 0.611D+00
 Gap=     0.256 Goal=   None    Shift=    0.000
 RMSDP=9.43D-09 MaxDP=9.94D-07 DE= 1.82D-11 OVMax= 1.00D-07

 SCF Done:  E(RPBE1PBE) =  -880.915497069     A.U. after   14 cycles
            NFock= 14  Conv=0.94D-08     -V/T= 2.0044
 KE= 8.770932098897D+02 PE=-4.935124200419D+03 EE= 1.731153096305D+03
 Leave Link  502 at Mon Jan  9 15:01:39 2017, MaxMem= 13421772800 cpu:       979.6
 (Enter /share/apps//g09/l601.exe)
 Copying SCF densities to generalized density rwf, IOpCl= 0 IROHF=0.

 **********************************************************************

            Population analysis using the SCF density.

 **********************************************************************

 Orbital symmetries:
       Occupied  (A) (A) (A) (A) (A) (A) (A) (A) (A) (A) (A) (A)
                 (A) (A) (A) (A) (A) (A) (A) (A) (A) (A) (A) (A)
                 (A) (A) (A) (A) (A) (A) (A) (A) (A) (A) (A) (A)
                 (A) (A) (A) (A) (A) (A) (A) (A) (A) (A) (A) (A)
                 (A) (A) (A) (A) (A) (A) (A) (A) (A) (A) (A) (A)
                 (A) (A) (A) (A) (A) (A)
       Virtual   (A) (A) (A) (A) (A) (A) (A) (A) (A) (A) (A) (A)
                 (A) (A) (A) (A) (A) (A) (A) (A) (A) (A) (A) (A)
                 (A) (A) (A) (A) (A) (A) (A) (A) (A) (A) (A) (A)
                 (A) (A) (A) (A) (A) (A) (A) (A) (A) (A) (A) (A)
                 (A) (A) (A) (A) (A) (A) (A) (A) (A) (A) (A) (A)
                 (A) (A) (A) (A) (A) (A) (A) (A) (A) (A) (A) (A)
                 (A) (A) (A) (A) (A) (A) (A) (A) (A) (A) (A) (A)
                 (A) (A) (A) (A) (A) (A) (A) (A) (A) (A) (A) (A)
                 (A) (A) (A) (A) (A) (A) (A) (A) (A) (A) (A) (A)
                 (A) (A) (A) (A) (A) (A) (A) (A) (A) (A) (A) (A)
                 (A) (A) (A) (A) (A) (A) (A) (A) (A) (A) (A) (A)
                 (A) (A) (A) (A) (A) (A) (A) (A) (A) (A) (A) (A)
                 (A) (A) (A) (A) (A) (A) (A) (A) (A) (A) (A) (A)
                 (A) (A) (A) (A) (A) (A) (A) (A) (A) (A) (A) (A)
                 (A) (A) (A) (A) (A) (A) (A) (A) (A) (A) (A) (A)
                 (A) (A) (A) (A) (A) (A) (A) (A) (A) (A) (A) (A)
                 (A) (A) (A) (A) (A) (A) (A) (A) (A) (A) (A) (A)
                 (A) (A) (A) (A) (A) (A) (A) (A) (A) (A) (A) (A)
                 (A) (A) (A) (A) (A) (A) (A) (A) (A) (A) (A) (A)
                 (A) (A) (A) (A) (A) (A) (A) (A) (A) (A) (A) (A)
                 (A) (A) (A) (A) (A) (A) (A) (A) (A) (A) (A) (A)
                 (A) (A) (A) (A) (A) (A) (A) (A) (A) (A) (A) (A)
                 (A) (A) (A) (A) (A) (A) (A) (A) (A) (A) (A) (A)
                 (A) (A) (A) (A) (A) (A) (A) (A) (A) (A) (A) (A)
                 (A) (A) (A) (A) (A) (A) (A) (A) (A) (A) (A) (A)
                 (A) (A) (A) (A) (A) (A) (A) (A) (A) (A) (A) (A)
                 (A) (A) (A) (A) (A) (A) (A) (A) (A) (A) (A) (A)
                 (A) (A) (A) (A) (A) (A) (A) (A) (A) (A) (A) (A)
                 (A) (A) (A) (A) (A) (A) (A) (A) (A) (A) (A) (A)
                 (A) (A) (A) (A) (A) (A) (A) (A) (A) (A) (A) (A)
                 (A) (A) (A) (A) (A) (A) (A) (A) (A) (A) (A) (A)
                 (A) (A) (A) (A) (A) (A) (A) (A) (A) (A) (A) (A)
                 (A) (A) (A) (A) (A) (A) (A) (A) (A) (A) (A) (A)
                 (A) (A) (A) (A) (A) (A) (A) (A) (A) (A) (A) (A)
                 (A) (A) (A) (A) (A) (A) (A) (A) (A) (A) (A) (A)
                 (A) (A)
 The electronic state is 1-A.
 Alpha  occ. eigenvalues --  -19.47805 -19.41160 -19.38186 -19.36017 -19.35957
 Alpha  occ. eigenvalues --  -19.31966 -10.52296 -10.48077 -10.46001 -10.45813
 Alpha  occ. eigenvalues --  -10.44712 -10.44641 -10.43419 -10.43240 -10.39396
 Alpha  occ. eigenvalues --  -10.39034 -10.34230  -1.32911  -1.26236  -1.25683
 Alpha  occ. eigenvalues --   -1.21757  -1.20646  -1.17571  -0.99535  -0.97354
 Alpha  occ. eigenvalues --   -0.93494  -0.89847  -0.87141  -0.85553  -0.83059
 Alpha  occ. eigenvalues --   -0.81612  -0.80799  -0.75367  -0.73816  -0.72367
 Alpha  occ. eigenvalues --   -0.70034  -0.67416  -0.67136  -0.66238  -0.65108
 Alpha  occ. eigenvalues --   -0.64622  -0.63014  -0.62524  -0.61866  -0.61573
 Alpha  occ. eigenvalues --   -0.60238  -0.59232  -0.58822  -0.58534  -0.57723
 Alpha  occ. eigenvalues --   -0.56434  -0.55440  -0.55322  -0.53558  -0.52990
 Alpha  occ. eigenvalues --   -0.52370  -0.51158  -0.50629  -0.50385  -0.48575
 Alpha  occ. eigenvalues --   -0.47865  -0.47304  -0.45136  -0.43296  -0.41696
 Alpha  occ. eigenvalues --   -0.40988
 Alpha virt. eigenvalues --   -0.15346  -0.12227  -0.11751  -0.11335  -0.10007
 Alpha virt. eigenvalues --   -0.09299  -0.09203  -0.07864  -0.07212  -0.06737
 Alpha virt. eigenvalues --   -0.06592  -0.06489  -0.05719  -0.04997  -0.04330
 Alpha virt. eigenvalues --   -0.03982  -0.03470  -0.03188  -0.02873  -0.02710
 Alpha virt. eigenvalues --   -0.02235  -0.01742  -0.01368  -0.01276  -0.00731
 Alpha virt. eigenvalues --    0.00074   0.00370   0.00707   0.00996   0.01675
 Alpha virt. eigenvalues --    0.01981   0.02200   0.02519   0.02677   0.02889
 Alpha virt. eigenvalues --    0.03497   0.03755   0.03958   0.04203   0.04386
 Alpha virt. eigenvalues --    0.04772   0.05840   0.06284   0.06625   0.07043
 Alpha virt. eigenvalues --    0.07523   0.07687   0.07846   0.08023   0.08894
 Alpha virt. eigenvalues --    0.09149   0.09589   0.09666   0.10162   0.10410
 Alpha virt. eigenvalues --    0.10750   0.11017   0.11303   0.11606   0.12335
 Alpha virt. eigenvalues --    0.12862   0.12938   0.13377   0.13767   0.14222
 Alpha virt. eigenvalues --    0.14528   0.14817   0.15071   0.15744   0.16199
 Alpha virt. eigenvalues --    0.16434   0.16620   0.17290   0.17706   0.18071
 Alpha virt. eigenvalues --    0.18725   0.19184   0.20246   0.20494   0.20681
 Alpha virt. eigenvalues --    0.21438   0.21750   0.22407   0.22658   0.23257
 Alpha virt. eigenvalues --    0.23736   0.24581   0.25136   0.25434   0.25790
 Alpha virt. eigenvalues --    0.26444   0.27215   0.27721   0.28016   0.28108
 Alpha virt. eigenvalues --    0.28696   0.29546   0.30492   0.31345   0.31666
 Alpha virt. eigenvalues --    0.32328   0.33696   0.34281   0.34467   0.35198
 Alpha virt. eigenvalues --    0.35958   0.36778   0.37138   0.37717   0.38330
 Alpha virt. eigenvalues --    0.39611   0.39911   0.41036   0.41671   0.41797
 Alpha virt. eigenvalues --    0.42988   0.43447   0.44367   0.45042   0.46093
 Alpha virt. eigenvalues --    0.46911   0.47668   0.48832   0.49467   0.49496
 Alpha virt. eigenvalues --    0.50907   0.51368   0.51793   0.52865   0.53842
 Alpha virt. eigenvalues --    0.54210   0.54723   0.55145   0.55568   0.55748
 Alpha virt. eigenvalues --    0.56081   0.56912   0.58036   0.58529   0.58761
 Alpha virt. eigenvalues --    0.59607   0.60311   0.60747   0.61184   0.61810
 Alpha virt. eigenvalues --    0.62311   0.63092   0.64195   0.64609   0.65334
 Alpha virt. eigenvalues --    0.66899   0.67788   0.68413   0.70260   0.72303
 Alpha virt. eigenvalues --    0.73137   0.74643   0.76093   0.78242   0.80305
 Alpha virt. eigenvalues --    0.82386   0.84254   0.85271   0.86223   0.87462
 Alpha virt. eigenvalues --    0.89286   0.90686   0.93137   0.94151   0.95370
 Alpha virt. eigenvalues --    0.97106   0.98378   0.99447   1.00092   1.01724
 Alpha virt. eigenvalues --    1.02428   1.04339   1.05272   1.05723   1.09118
 Alpha virt. eigenvalues --    1.09911   1.10928   1.11692   1.13169   1.13704
 Alpha virt. eigenvalues --    1.14557   1.16879   1.17503   1.18686   1.19335
 Alpha virt. eigenvalues --    1.19925   1.20613   1.22843   1.23659   1.24844
 Alpha virt. eigenvalues --    1.26865   1.27982   1.30086   1.31113   1.31822
 Alpha virt. eigenvalues --    1.33598   1.33895   1.34489   1.34857   1.35404
 Alpha virt. eigenvalues --    1.36384   1.36619   1.37520   1.39157   1.40143
 Alpha virt. eigenvalues --    1.41592   1.42086   1.42474   1.43927   1.44372
 Alpha virt. eigenvalues --    1.44930   1.46144   1.46939   1.47283   1.47839
 Alpha virt. eigenvalues --    1.48513   1.49093   1.49770   1.50753   1.51122
 Alpha virt. eigenvalues --    1.51975   1.53028   1.53408   1.53961   1.55058
 Alpha virt. eigenvalues --    1.56719   1.57126   1.57838   1.58988   1.59466
 Alpha virt. eigenvalues --    1.59873   1.61265   1.61903   1.63906   1.64286
 Alpha virt. eigenvalues --    1.65003   1.65739   1.66727   1.67190   1.69920
 Alpha virt. eigenvalues --    1.71348   1.71707   1.72960   1.73215   1.75217
 Alpha virt. eigenvalues --    1.75638   1.76061   1.78045   1.79597   1.79827
 Alpha virt. eigenvalues --    1.81983   1.82841   1.85507   1.87054   1.88053
 Alpha virt. eigenvalues --    1.88302   1.90165   1.92992   1.94326   1.95122
 Alpha virt. eigenvalues --    1.97235   1.98436   1.98918   2.00237   2.01211
 Alpha virt. eigenvalues --    2.02832   2.04084   2.05299   2.06398   2.07091
 Alpha virt. eigenvalues --    2.07542   2.10096   2.12366   2.13590   2.14959
 Alpha virt. eigenvalues --    2.16743   2.18427   2.18728   2.21836   2.25615
 Alpha virt. eigenvalues --    2.26319   2.31460   2.32808   2.33767   2.34558
 Alpha virt. eigenvalues --    2.36976   2.37451   2.38250   2.39108   2.40275
 Alpha virt. eigenvalues --    2.40949   2.41106   2.42088   2.43222   2.44112
 Alpha virt. eigenvalues --    2.45141   2.45861   2.47558   2.48150   2.48554
 Alpha virt. eigenvalues --    2.49303   2.50564   2.51687   2.53265   2.54837
 Alpha virt. eigenvalues --    2.56017   2.57943   2.58245   2.59942   2.60434
 Alpha virt. eigenvalues --    2.62597   2.66818   2.68401   2.68730   2.71656
 Alpha virt. eigenvalues --    2.72853   2.73890   2.74507   2.77370   2.78413
 Alpha virt. eigenvalues --    2.79783   2.79862   2.82199   2.83033   2.84112
 Alpha virt. eigenvalues --    2.85321   2.87756   2.89206   2.90518   2.90992
 Alpha virt. eigenvalues --    2.92019   2.93767   2.94694   2.98094   2.99355
 Alpha virt. eigenvalues --    3.00402   3.01232   3.02281   3.04369   3.06410
 Alpha virt. eigenvalues --    3.06779   3.08214   3.08907   3.11087   3.12022
 Alpha virt. eigenvalues --    3.12813   3.14030   3.15737   3.19237   3.21360
 Alpha virt. eigenvalues --    3.26217   3.28996   3.30357   3.39203   3.47382
 Alpha virt. eigenvalues --    3.56520   3.58670   3.63429   3.66798   3.68188
 Alpha virt. eigenvalues --    3.68983   3.69010   3.70015   3.70969   3.71298
 Alpha virt. eigenvalues --    3.76375   3.80279   3.81495   3.84866   3.85558
 Alpha virt. eigenvalues --    3.89130   3.93231   3.96369   3.97534   3.98833
 Alpha virt. eigenvalues --    4.01970   4.03775   4.08280   4.09581   4.13448
 Alpha virt. eigenvalues --    4.16875   4.25833   4.99399   5.01381   5.03295
 Alpha virt. eigenvalues --    5.04058   5.05247   5.09673   5.15864   5.19163
 Alpha virt. eigenvalues --    5.27413   5.31205   5.32595   5.36477   5.40372
 Alpha virt. eigenvalues --    5.51577   5.56427   5.57627   5.62836   5.79250
 Alpha virt. eigenvalues --   23.69115  23.74986  23.75882  23.81153  23.82904
 Alpha virt. eigenvalues --   23.84155  23.86979  23.88675  23.89456  23.92430
 Alpha virt. eigenvalues --   23.94018  49.88753  49.91876  49.93438  49.98198
 Alpha virt. eigenvalues --   50.00551  50.01351
          Condensed to atoms (all electrons):
               1          2          3          4          5          6
     1  C    8.225602  -3.346224   1.631407  -1.584992   0.194548   0.186654
     2  C   -3.346224  15.193955  -5.247916   1.721245   0.464591  -1.746020
     3  C    1.631407  -5.247916  14.560880  -5.559275   0.830324  -0.536316
     4  C   -1.584992   1.721245  -5.559275  18.365201  -8.676746   3.025236
     5  C    0.194548   0.464591   0.830324  -8.676746  20.902114  -8.126321
     6  C    0.186654  -1.746020  -0.536316   3.025236  -8.126321  13.937131
     7  O   -0.002448   0.167995  -0.017338  -0.106367  -0.177566   0.503845
     8  O    0.128490  -0.230336   0.231911  -0.431285   0.110748  -0.081637
     9  O    0.127058  -0.415047   0.376699  -0.447651   0.174589  -0.083643
    10  O   -0.238949   0.131413   0.168914   0.040217   0.346880  -0.673103
    11  H    0.394398   0.076994  -0.102489   0.004205   0.014411   0.010414
    12  H    0.419372  -0.042178   0.007844   0.009187   0.002768  -0.015289
    13  H    0.002529   0.431399  -0.039761  -0.032753   0.062681  -0.045581
    14  H   -0.001343  -0.086947   0.479468  -0.111668   0.035698   0.003112
    15  H    0.006912   0.020732  -0.039245   0.368569   0.023048  -0.008160
    16  H    0.032668  -0.064543   0.030899  -0.110864   0.369901   0.058614
    17  H    0.020643   0.027340   0.014932  -0.065010   0.128712   0.232547
    18  O   -0.001597  -0.009029  -0.075671  -0.018871   0.430615  -0.215192
    19  C   -0.217465   0.162904  -0.021718  -0.028717   0.076385  -0.239455
    20  H    0.023260  -0.003339  -0.001589  -0.001057  -0.024689   0.027528
    21  H   -0.005524   0.009088  -0.000448  -0.002028   0.022875  -0.000191
    22  H   -0.031276   0.027648  -0.019229   0.036768  -0.017690  -0.023016
    23  C   -0.000570  -0.044305  -0.040658   0.272671  -0.470067   0.014033
    24  H    0.001172  -0.001794  -0.010155   0.009319  -0.076474   0.060361
    25  H    0.000034  -0.007027   0.036628   0.037292  -0.035112  -0.033424
    26  H    0.000008   0.001631  -0.005717  -0.011481   0.054174  -0.003413
    27  C    0.033678  -0.067138   0.024475  -0.431566  -0.021650   0.045656
    28  H    0.001166  -0.004655   0.058512  -0.081823  -0.020671   0.000394
    29  H    0.003084  -0.004737   0.001603  -0.032216   0.018464  -0.003223
    30  H   -0.003482   0.006759  -0.022681   0.070981  -0.002854   0.003861
    31  C    0.119560  -0.514181  -0.415350   0.521377  -0.284533   0.135266
    32  O   -0.001662   0.059952   0.230107  -0.183420  -0.009290  -0.004696
    33  C    0.022925  -0.150670   0.127717  -0.205127  -0.007469   0.000238
    34  H   -0.000300   0.006625  -0.027511   0.007968  -0.000821   0.000351
    35  H    0.000188  -0.003279   0.026545  -0.022851   0.000950  -0.000531
    36  H    0.000238   0.000560  -0.003036   0.002346  -0.000377   0.000059
               7          8          9         10         11         12
     1  C   -0.002448   0.128490   0.127058  -0.238949   0.394398   0.419372
     2  C    0.167995  -0.230336  -0.415047   0.131413   0.076994  -0.042178
     3  C   -0.017338   0.231911   0.376699   0.168914  -0.102489   0.007844
     4  C   -0.106367  -0.431285  -0.447651   0.040217   0.004205   0.009187
     5  C   -0.177566   0.110748   0.174589   0.346880   0.014411   0.002768
     6  C    0.503845  -0.081637  -0.083643  -0.673103   0.010414  -0.015289
     7  O    7.612619   0.021834   0.009583  -0.105276   0.010122  -0.001687
     8  O    0.021834   8.301567   0.055174  -0.034001  -0.005400   0.001512
     9  O    0.009583   0.055174   8.474829  -0.002421   0.001836  -0.000513
    10  O   -0.105276  -0.034001  -0.002421   8.373551  -0.057695  -0.023542
    11  H    0.010122  -0.005400   0.001836  -0.057695   0.406599  -0.021705
    12  H   -0.001687   0.001512  -0.000513  -0.023542  -0.021705   0.409116
    13  H   -0.042814   0.000805  -0.000224   0.002057   0.001201  -0.003278
    14  H    0.010561   0.014754  -0.030174  -0.000875   0.000550   0.000013
    15  H   -0.000604  -0.056113   0.006568   0.000329  -0.000225   0.000009
    16  H    0.008311   0.010102   0.000017  -0.007971  -0.000183  -0.000054
    17  H   -0.045333   0.000773   0.000399  -0.009963  -0.000156   0.000075
    18  O    0.021954   0.014231   0.001493   0.008722   0.000075   0.000053
    19  C    0.018473   0.005271  -0.004231   0.073100   0.011327   0.005012
    20  H    0.000146  -0.001177   0.000007  -0.037079   0.000219  -0.000252
    21  H   -0.001099  -0.000678  -0.000096  -0.038821  -0.001935   0.001523
    22  H    0.001666   0.001487  -0.000224  -0.038264   0.005749  -0.000715
    23  C   -0.001716  -0.004659   0.000415   0.000153  -0.000155   0.000016
    24  H    0.000347   0.001446  -0.000018  -0.000513  -0.000003  -0.000000
    25  H   -0.000431  -0.004258   0.000141   0.000388  -0.000003   0.000000
    26  H   -0.000145   0.000057   0.000004   0.000061  -0.000000   0.000000
    27  C    0.000328   0.148751   0.026672   0.001257  -0.000265  -0.000449
    28  H    0.000085  -0.034058   0.003847  -0.000274   0.000356  -0.000005
    29  H   -0.000026  -0.054736   0.001527  -0.000035  -0.000173   0.000003
    30  H    0.000076  -0.070707  -0.000474  -0.001231   0.000025   0.000002
    31  C   -0.001817  -0.025395   0.059039   0.006385  -0.012405   0.000026
    32  O    0.000090   0.003228  -0.197135   0.000287  -0.000117   0.000001
    33  C   -0.002246  -0.004290  -0.299653   0.001201  -0.005688   0.000215
    34  H    0.000003  -0.000042  -0.005196  -0.000007   0.000008  -0.000001
    35  H    0.000003  -0.000194   0.004863  -0.000012   0.000030  -0.000001
    36  H   -0.000000   0.000069   0.014100  -0.000000  -0.000000  -0.000000
              13         14         15         16         17         18
     1  C    0.002529  -0.001343   0.006912   0.032668   0.020643  -0.001597
     2  C    0.431399  -0.086947   0.020732  -0.064543   0.027340  -0.009029
     3  C   -0.039761   0.479468  -0.039245   0.030899   0.014932  -0.075671
     4  C   -0.032753  -0.111668   0.368569  -0.110864  -0.065010  -0.018871
     5  C    0.062681   0.035698   0.023048   0.369901   0.128712   0.430615
     6  C   -0.045581   0.003112  -0.008160   0.058614   0.232547  -0.215192
     7  O   -0.042814   0.010561  -0.000604   0.008311  -0.045333   0.021954
     8  O    0.000805   0.014754  -0.056113   0.010102   0.000773   0.014231
     9  O   -0.000224  -0.030174   0.006568   0.000017   0.000399   0.001493
    10  O    0.002057  -0.000875   0.000329  -0.007971  -0.009963   0.008722
    11  H    0.001201   0.000550  -0.000225  -0.000183  -0.000156   0.000075
    12  H   -0.003278   0.000013   0.000009  -0.000054   0.000075   0.000053
    13  H    0.399102  -0.002667  -0.000027   0.000064   0.000340   0.000261
    14  H   -0.002667   0.413821   0.000358  -0.000033  -0.000252   0.003233
    15  H   -0.000027   0.000358   0.430331  -0.004141   0.000065  -0.000357
    16  H    0.000064  -0.000033  -0.004141   0.464441  -0.003285  -0.034746
    17  H    0.000340  -0.000252   0.000065  -0.003285   0.411731   0.009083
    18  O    0.000261   0.003233  -0.000357  -0.034746   0.009083   7.864463
    19  C   -0.002497   0.000047   0.001080   0.002223  -0.005929  -0.001794
    20  H    0.000023  -0.000000   0.000006   0.000193   0.001133   0.000053
    21  H   -0.000002  -0.000003  -0.000010  -0.000194  -0.000027   0.000028
    22  H   -0.000051   0.000020  -0.000238  -0.000355  -0.000155  -0.000135
    23  C    0.000290  -0.000759   0.001676   0.011942  -0.001029   0.135359
    24  H   -0.000000   0.000017  -0.000068   0.012919  -0.000592  -0.039242
    25  H   -0.000000  -0.000265   0.002874  -0.003633   0.000123  -0.031378
    26  H   -0.000001  -0.000004  -0.000161  -0.000068  -0.000031  -0.064098
    27  C    0.000488   0.004010  -0.006109   0.002732  -0.000369  -0.003016
    28  H    0.000027  -0.000413   0.000566   0.000086  -0.000001   0.000288
    29  H   -0.000002   0.000248   0.009625  -0.000159  -0.000002  -0.000797
    30  H   -0.000005   0.000041  -0.000153  -0.000170  -0.000004   0.000053
    31  C   -0.002157  -0.014828  -0.006055   0.002175  -0.000931  -0.008933
    32  O   -0.000242   0.006758  -0.004529  -0.000042   0.000013  -0.001552
    33  C   -0.001495   0.000161   0.000433   0.000179  -0.000048  -0.003212
    34  H   -0.000042  -0.000037  -0.000018   0.000000  -0.000000   0.000001
    35  H    0.000000  -0.000053   0.000018   0.000000   0.000000   0.000001
    36  H    0.000001   0.000036   0.000006   0.000000   0.000000  -0.000000
              19         20         21         22         23         24
     1  C   -0.217465   0.023260  -0.005524  -0.031276  -0.000570   0.001172
     2  C    0.162904  -0.003339   0.009088   0.027648  -0.044305  -0.001794
     3  C   -0.021718  -0.001589  -0.000448  -0.019229  -0.040658  -0.010155
     4  C   -0.028717  -0.001057  -0.002028   0.036768   0.272671   0.009319
     5  C    0.076385  -0.024689   0.022875  -0.017690  -0.470067  -0.076474
     6  C   -0.239455   0.027528  -0.000191  -0.023016   0.014033   0.060361
     7  O    0.018473   0.000146  -0.001099   0.001666  -0.001716   0.000347
     8  O    0.005271  -0.001177  -0.000678   0.001487  -0.004659   0.001446
     9  O   -0.004231   0.000007  -0.000096  -0.000224   0.000415  -0.000018
    10  O    0.073100  -0.037079  -0.038821  -0.038264   0.000153  -0.000513
    11  H    0.011327   0.000219  -0.001935   0.005749  -0.000155  -0.000003
    12  H    0.005012  -0.000252   0.001523  -0.000715   0.000016  -0.000000
    13  H   -0.002497   0.000023  -0.000002  -0.000051   0.000290  -0.000000
    14  H    0.000047  -0.000000  -0.000003   0.000020  -0.000759   0.000017
    15  H    0.001080   0.000006  -0.000010  -0.000238   0.001676  -0.000068
    16  H    0.002223   0.000193  -0.000194  -0.000355   0.011942   0.012919
    17  H   -0.005929   0.001133  -0.000027  -0.000155  -0.001029  -0.000592
    18  O   -0.001794   0.000053   0.000028  -0.000135   0.135359  -0.039242
    19  C    5.325004   0.389969   0.391471   0.419543  -0.012560  -0.000328
    20  H    0.389969   0.442346  -0.013600  -0.018159  -0.000582  -0.000053
    21  H    0.391471  -0.013600   0.440072  -0.019522   0.000390  -0.000000
    22  H    0.419543  -0.018159  -0.019522   0.401401  -0.000906   0.000008
    23  C   -0.012560  -0.000582   0.000390  -0.000906   5.189056   0.406745
    24  H   -0.000328  -0.000053  -0.000000   0.000008   0.406745   0.517392
    25  H    0.000151   0.000005   0.000000  -0.000014   0.407019  -0.040329
    26  H   -0.000008  -0.000001   0.000000  -0.000001   0.406122  -0.018874
    27  C   -0.011611  -0.000971  -0.000592   0.003830  -0.001407   0.002381
    28  H    0.000556  -0.000001   0.000006  -0.000151   0.000021   0.000003
    29  H   -0.000861  -0.000006  -0.000003  -0.000079  -0.000322  -0.000001
    30  H    0.000305  -0.000009  -0.000008   0.000552   0.000013  -0.000001
    31  C   -0.007839  -0.000136  -0.000029  -0.001126   0.011015   0.000102
    32  O    0.000407  -0.000000   0.000000   0.000007  -0.000961  -0.000011
    33  C    0.002345  -0.000027  -0.000014  -0.000141  -0.000876  -0.000002
    34  H   -0.000023   0.000000  -0.000000   0.000000   0.000005   0.000000
    35  H   -0.000003   0.000000   0.000000   0.000000  -0.000009   0.000000
    36  H    0.000001   0.000000   0.000000  -0.000000  -0.000004   0.000000
              25         26         27         28         29         30
     1  C    0.000034   0.000008   0.033678   0.001166   0.003084  -0.003482
     2  C   -0.007027   0.001631  -0.067138  -0.004655  -0.004737   0.006759
     3  C    0.036628  -0.005717   0.024475   0.058512   0.001603  -0.022681
     4  C    0.037292  -0.011481  -0.431566  -0.081823  -0.032216   0.070981
     5  C   -0.035112   0.054174  -0.021650  -0.020671   0.018464  -0.002854
     6  C   -0.033424  -0.003413   0.045656   0.000394  -0.003223   0.003861
     7  O   -0.000431  -0.000145   0.000328   0.000085  -0.000026   0.000076
     8  O   -0.004258   0.000057   0.148751  -0.034058  -0.054736  -0.070707
     9  O    0.000141   0.000004   0.026672   0.003847   0.001527  -0.000474
[...]
 02221,-0.00013933,0.00007473,-0.00007739,0.00008800,0.00007094,0.00233
 679,0.00275347,0.00044056,0.00051669,0.00184029,0.00023220,-0.00031032
 ,-0.00010495,0.00015741,0.00000015,-0.00031950,0.00039054,-0.11417218,
 0.18540983,0.54328436,0.00016934,0.00010311,0.00142892,0.00257397,0.00
 072597,0.00153117,-0.00564553,0.01026723,0.01781761,-0.00260224,-0.002
 29495,-0.00015105,0.00061598,0.00190463,-0.00044448,-0.00111843,-0.000
 79916,0.00173669,-0.00048629,-0.00090845,-0.00357337,0.00271062,0.0014
 3422,-0.00025881,-0.10278053,0.01719661,-0.04873893,0.00028897,0.00036
 898,-0.00159286,0.00034573,-0.00056026,0.00057083,-0.00000810,-0.00003
 562,-0.00019579,0.00057319,0.00054559,0.00007093,-0.00094206,-0.002393
 10,-0.00281740,0.00088537,0.00083529,-0.00222084,0.00000577,-0.0002942
 2,-0.00051299,0.00020211,0.00017705,-0.00016115,0.00172823,-0.00052030
 ,-0.00013385,-0.00000962,-0.00076394,0.00042792,0.00001590,0.00006209,
 -0.00004831,0.00004573,0.00004826,0.00003991,-0.00007497,0.00005255,-0
 .00000646,-0.00129986,-0.00043641,-0.00008013,0.00018594,0.00009760,0.
 00009340,0.00017103,0.00030145,-0.00012310,0.00008995,-0.00005432,-0.0
 0008616,-0.00136492,-0.00221770,-0.00118455,-0.00110310,0.00050382,0.0
 0039063,0.00031093,0.00019198,-0.00057158,0.00022651,0.00005479,0.0005
 6703,-0.63147703,0.23850417,0.14593057,0.75526065,-0.00070965,-0.00036
 933,-0.00052934,-0.00096739,0.00175554,0.00021954,-0.00092451,-0.00676
 191,-0.00289369,-0.00027178,-0.00014942,0.00224964,0.00031982,-0.00100
 468,0.00039673,0.00016818,-0.00021660,0.00016003,0.00036401,0.00061634
 ,0.00071279,-0.00008237,0.00137658,0.00027603,0.02083692,0.02521356,0.
 00934392,-0.00017588,0.00025953,0.00012217,-0.00003537,-0.00000235,-0.
 00013692,-0.00009834,0.00013349,-0.00011052,-0.00012258,-0.00020040,-0
 .00005653,-0.00042261,0.00144528,0.00074559,0.00022727,-0.00044439,0.0
 0059057,0.00000270,0.00013999,0.00012079,0.00001332,-0.00000729,0.0000
 2799,-0.00046133,0.00046928,-0.00024872,-0.00003227,-0.00007266,0.0000
 0671,0.00000782,0.00001441,-0.00000218,-0.00000020,0.00000242,-0.00001
 374,-0.00001635,-0.00000262,-0.00004451,0.00015427,0.00007171,0.000081
 15,-0.00005107,-0.00000347,-0.00007927,-0.00002647,-0.00015276,0.00007
 150,-0.00002446,0.00003716,0.00008811,-0.00010878,-0.00053228,-0.00121
 621,-0.00001265,0.00003194,0.00056843,0.00001344,0.00004648,0.00010628
 ,0.00004647,0.00009501,0.00019159,0.23336602,-0.18863492,-0.07695832,-
 0.28164298,0.15961112,-0.00047415,-0.00032097,-0.00026716,-0.00085898,
 0.00215397,0.00091755,0.00063881,0.00243120,0.00173307,0.00247349,-0.0
 0161177,-0.00207417,-0.00152742,0.00071114,0.00074680,0.00090929,-0.00
 029013,-0.00058459,0.00014794,0.00023648,0.00033145,-0.00065227,0.0014
 1331,0.00002791,-0.04005946,0.00703058,0.02143608,-0.00034351,0.000373
 19,-0.00010970,0.00017575,-0.00014391,-0.00006980,-0.00012244,0.000099
 29,-0.00019246,-0.00008922,-0.00000641,-0.00020783,-0.00058230,0.00138
 464,-0.00086507,-0.00216238,-0.00040382,-0.00053678,-0.00000815,-0.000
 02473,-0.00015575,-0.00027419,-0.00004973,-0.00002030,0.00036736,-0.00
 022106,-0.00035060,0.00003803,-0.00027717,0.00021100,0.00003309,0.0000
 0461,0.00001761,-0.00001519,-0.00001345,-0.00000151,0.00009827,-0.0000
 3401,0.00006982,-0.00025950,0.00007268,0.00039020,-0.00002246,0.000020
 25,-0.00009489,-0.00013072,-0.00004396,0.00004413,0.00000132,-0.000031
 72,-0.00002393,-0.00046431,-0.00021087,0.00007418,0.00042412,-0.000255
 23,-0.00061607,-0.00000022,-0.00010630,0.00030342,-0.00008693,0.000098
 25,-0.00033609,0.12618248,-0.07028689,-0.14531752,-0.12124621,0.082952
 28,0.12677138,0.00005672,-0.00004542,0.00014264,0.00094482,-0.00034100
 ,-0.00077231,-0.00363045,0.00144874,-0.00438100,-0.00034448,-0.0010243
 9,-0.00042885,0.00024327,0.00042593,-0.00017986,-0.00018434,-0.0002359
 6,0.00039574,-0.00042666,-0.00039088,-0.00078424,0.00026009,0.00040260
 ,0.00032263,0.00671581,-0.01350456,-0.02984732,0.00002863,0.00007558,-
 0.00009005,-0.00003071,-0.00001502,0.00002046,-0.00000057,0.00002615,-
 0.00000655,-0.00002047,0.00000236,0.00001196,-0.00014689,-0.00019608,0
 .00016778,0.00015841,0.00016074,-0.00036017,-0.00000134,-0.00006203,-0
 .00011544,0.00004628,0.00002306,-0.00001701,0.00015976,-0.00003363,0.0
 0006524,-0.00002224,-0.00007214,0.00003584,0.00000122,0.00001043,-0.00
 000335,0.00000654,0.00001090,-0.00000130,-0.00002669,0.00000735,-0.000
 02786,-0.00012632,-0.00005668,-0.00004746,0.00002500,0.00000704,0.0000
 2212,0.00003671,0.00004407,-0.00001978,0.00001414,-0.00000355,-0.00001
 225,-0.00029389,-0.00016264,-0.00048974,0.00010066,0.00001867,-0.00001
 032,0.00004437,0.00002180,0.00007018,0.00003468,0.00001928,0.00005031,
 -0.08627779,0.01395209,0.02861351,-0.01980961,0.02798335,0.03308665,0.
 59431721,0.00002086,0.00006674,0.00005364,-0.00043154,0.00029399,0.000
 01661,0.00133300,0.00401083,0.00044123,0.00012047,-0.00064332,-0.00106
 490,-0.00003240,0.00035737,-0.00009162,0.00014351,0.00009723,-0.000127
 36,0.00012235,0.00004458,0.00033408,0.00001239,0.00014029,0.00006663,0
 .00020074,0.00428884,-0.01261843,-0.00001745,-0.00003661,-0.00003488,0
 .00003813,-0.00001496,0.00006368,-0.00000394,-0.00000862,-0.00001385,-
 0.00003974,-0.00000809,-0.00002530,0.00041575,-0.00002545,0.00039060,-
 0.00023010,-0.00012560,0.00029058,-0.00002736,-0.00005018,-0.00009257,
 -0.00003031,-0.00002442,0.00001675,0.00006383,-0.00007453,-0.00003976,
 0.00001565,-0.00002687,0.00002745,0.00000450,-0.00000203,0.00000394,-0
 .00000040,-0.00000156,0.00000631,0.00000617,-0.00000441,0.00001001,-0.
 00003601,0.00000119,0.00004682,-0.00000823,0.00000467,-0.00001267,-0.0
 0001303,-0.00000589,0.00000686,0.00000227,-0.00000282,-0.00000116,-0.0
 0011786,-0.00018768,-0.00028555,-0.00006584,0.00005406,0.00005925,0.00
 001762,-0.00003038,0.00005004,-0.00002009,-0.00000025,0.00005432,0.013
 84967,-0.12220795,-0.05417024,0.01780822,0.01123297,-0.02249541,0.0030
 7546,0.53611361,0.00001581,-0.00008791,0.00011483,0.00099546,-0.000353
 36,-0.00029578,-0.00351184,0.00077575,0.00283162,-0.00006277,-0.000363
 32,0.00007175,0.00007101,0.00027780,0.00013085,0.00004336,-0.00038075,
 0.00038803,-0.00044583,-0.00020362,-0.00087963,0.00017656,0.00053914,-
 0.00012500,-0.00350352,-0.02024837,-0.03475944,-0.00010854,0.00026329,
 -0.00018248,0.00007158,-0.00004377,0.00003007,-0.00002730,0.00002160,-
 0.00007002,0.00006462,0.00006024,0.00002301,-0.00007117,-0.00012471,-0
 .00037176,0.00007941,0.00006253,-0.00005044,0.00000707,-0.00002634,-0.
 00009466,0.00000388,0.00003115,-0.00003615,0.00019706,-0.00007587,-0.0
 0014089,-0.00000854,-0.00017221,0.00011959,0.00001227,0.00000937,0.000
 00008,0.00000114,0.00000613,-0.00000295,0.00001826,-0.00000048,0.00001
 053,-0.00017169,-0.00001109,0.00007992,0.00000829,0.00001628,-0.000021
 23,0.00000038,0.00000103,-0.00000332,0.00000827,-0.00000692,-0.0000001
 3,-0.00023510,-0.00042658,-0.00014551,0.00003107,0.00004698,0.00002392
 ,0.00001186,0.00002019,0.00003369,0.00000796,0.00003582,0.00002923,0.0
 2914904,-0.05188685,-0.18112104,0.00997991,-0.01496743,0.00313706,0.04
 688070,-0.01174812,0.52547478,0.00002591,-0.00000523,-0.00003690,0.000
 08879,-0.00000927,0.00001206,0.00003040,0.00044404,0.00042487,-0.00005
 065,-0.00006584,-0.00011841,0.00002104,0.00006003,-0.00001170,0.000047
 90,-0.00002673,0.00001152,-0.00004963,-0.00000020,-0.00001615,0.000010
 24,0.00000005,-0.00002708,-0.00023673,-0.00039187,-0.00180647,-0.00003
 755,0.00002605,0.00001860,0.00002646,0.00000239,-0.00000276,-0.0000081
 3,-0.00000573,-0.00001898,0.00001972,-0.00001871,-0.00000538,-0.000014
 65,-0.00006754,0.00000496,-0.00000530,0.00000288,0.00000695,-0.0000027
 7,-0.00000929,-0.00002053,-0.00000462,-0.00000104,-0.00000048,0.000006
 50,-0.00001096,-0.00000934,0.00000134,0.00000001,0.00000454,0.00000072
 ,-0.00000044,0.00000161,-0.00000102,-0.00000089,-0.00000296,0.00000732
 ,-0.00000279,0.00000411,-0.00001052,-0.00000379,0.00000423,-0.00000037
 ,0.00000199,-0.00000169,-0.00000136,0.00000030,0.00000022,0.00000008,-
 0.00000041,0.00000175,0.00001218,-0.00003726,0.00001673,-0.00007229,-0
 .00000537,0.00003417,-0.00000033,0.00000104,-0.00002989,0.00000172,0.0
 0000344,0.00000285,-0.00976074,-0.00395507,0.00524048,0.00126244,0.002
 28455,0.00127130,-0.15280208,-0.10536926,0.08884352,0.16473598,-0.0000
 2534,0.00000123,0.00004045,0.00009582,0.00002568,0.00003141,-0.0001205
 6,-0.00014314,0.00039928,0.00004338,-0.00010401,0.00009370,-0.00001451
 ,0.00000967,0.00001513,-0.00001182,-0.00001523,0.00001513,-0.00002415,
 -0.00003877,-0.00008634,0.00007264,0.00019507,0.00008641,-0.00061458,-
 0.00067809,-0.00000955,0.00001258,0.00000352,-0.00003098,-0.00001302,-
 0.00001621,0.00001312,0.00000088,0.00001115,0.00000278,-0.00001287,0.0
 0002192,-0.00002058,0.00002602,0.00000696,-0.00006113,0.00000197,-0.00
 000596,0.00002303,0.00000116,-0.00000313,-0.00001085,0.00000045,0.0000
 0286,-0.00000340,0.00001627,0.00000396,-0.00000905,-0.00000403,-0.0000
 2173,0.00001087,0.00000163,0.00000177,-0.00000086,0.00000121,0.0000022
 5,0.00000225,-0.00000490,0.00000027,-0.00000449,-0.00001163,0.00000200
 ,0.00000910,-0.00000043,-0.00000023,-0.00000361,-0.00000213,-0.0000029
 6,0.00000294,0.00000114,0.00000029,-0.00000033,-0.00013844,-0.00007222
 ,-0.00018325,0.00006731,-0.00008402,0.00001101,0.00000899,-0.00000002,
 0.00005222,-0.00000238,0.00001059,-0.00001441,0.01212715,0.01304350,-0
 .00859084,0.00125984,-0.00479116,-0.00094457,-0.10356535,-0.13265809,0
 .07904128,0.11108443,0.14420022,-0.00000563,-0.00000892,-0.00008443,0.
 00024839,-0.00004214,-0.00010996,-0.00047464,-0.00094071,0.00013008,-0
 .00002609,0.00017687,0.00026319,-0.00002060,-0.00006405,0.00005049,0.0
 0004502,-0.00000898,-0.00001680,-0.00010587,-0.00004465,-0.00001785,-0
 .00003620,-0.00003283,-0.00003865,-0.00146589,-0.00190912,0.00038098,-
 0.00003554,0.00000046,0.00007245,0.00002028,0.00001649,-0.00002020,-0.
 00001224,0.00000159,-0.00001392,-0.00003107,-0.00004774,-0.00003743,-0
 .00000942,0.00003273,-0.00009745,-0.00000140,-0.00000608,0.00002531,0.
 00000130,0.00001003,0.00001862,-0.00000697,-0.00000153,-0.00000038,-0.
 00003612,0.00000620,-0.00000567,-0.00000049,0.00003275,-0.00001303,-0.
 00000099,-0.00000355,0.00000234,-0.00000183,-0.00000190,-0.00000394,0.
 00000709,-0.00000321,0.00000436,0.00002428,0.00000812,0.00000069,-0.00
 000244,-0.00000182,-0.00000193,-0.00000514,-0.00000624,0.00000170,-0.0
 0000170,0.00000130,0.00000151,0.00003839,0.00003848,0.00010011,-0.0000
 3738,-0.00006582,0.00001138,-0.00001162,-0.00000247,-0.00002860,-0.000
 00070,0.00000023,-0.00002466,0.01937284,0.02082198,-0.01421475,-0.0007
 2159,-0.00421207,-0.00070179,0.08940278,0.08084750,-0.11640870,-0.0988
 5322,-0.08649230,0.12347448,0.00003485,-0.00001895,-0.00006975,0.00011
 619,-0.00004661,0.00000257,-0.00007432,-0.00025772,0.00049085,-0.00010
 132,0.00026404,0.00004403,0.00001535,0.00001156,0.00003959,0.00006606,
 -0.00000327,0.00000273,-0.00007194,-0.00000259,-0.00000219,-0.00017015
 ,-0.00037722,-0.00024591,-0.00018125,-0.00094198,-0.00163707,-0.000054
 09,0.00001796,0.00005705,0.00005242,0.00000817,-0.00002832,-0.00001043
 ,-0.00001217,-0.00002114,0.00000616,-0.00001763,-0.00000026,-0.0000711
 7,-0.00009528,-0.00013225,0.00001977,0.00002790,-0.00002009,-0.0000012
 1,0.00000359,0.00001229,-0.00000841,0.00000030,-0.00000070,0.00001079,
 -0.00004659,-0.00002523,0.00000897,0.00002987,-0.00000573,-0.00000092,
 -0.00000395,0.00000271,-0.00000439,-0.00000587,-0.00000521,0.00002275,
 -0.00000378,0.00001787,-0.00000626,0.00000173,0.00000438,0.00000251,0.
 00000274,0.00000245,-0.00000480,0.00000592,-0.00000669,-0.00000067,-0.
 00000297,-0.00000255,0.00026556,0.00015810,0.00047338,-0.00013178,0.00
 005639,0.00004482,-0.00001525,0.00000561,-0.00012852,0.00000311,-0.000
 00223,-0.00002977,-0.00869363,0.00783645,-0.00168959,0.00040965,0.0007
 1424,0.00326755,-0.10577237,0.11419444,-0.03533447,0.01028030,-0.01848
 064,0.00411780,0.11332034,0.00000748,-0.00004201,-0.00010356,-0.000004
 93,-0.00000847,-0.00000131,0.00002617,0.00032281,-0.00043823,0.0000952
 9,-0.00010363,-0.00007392,-0.00001329,-0.00000616,-0.00001201,0.000071
 82,-0.00000754,-0.00004155,-0.00001293,0.00002777,0.00009369,-0.000090
 35,0.00003196,0.00006355,-0.00089841,0.00148011,-0.00045926,-0.0000405
 1,0.00002078,0.00007578,0.00000009,0.00001121,-0.00005933,-0.00000842,
 0.00000242,-0.00000790,-0.00000239,-0.00003046,0.00000126,0.00001017,0
 .00012054,0.00018881,-0.00005994,-0.00002671,0.00006170,-0.00000300,-0
 .00000015,-0.00000532,-0.00001094,-0.00000408,0.00000255,-0.00005051,0
 .00001675,0.00000532,-0.00000296,0.00002857,-0.00001739,0.00000019,-0.
 00000108,0.00000284,-0.00000187,-0.00000023,-0.00000442,0.00000304,-0.
 00000213,-0.00000303,0.00003436,0.00001038,0.00000267,-0.00000545,-0.0
 0000201,-0.00000330,-0.00000559,-0.00000871,0.00000385,-0.00000285,0.0
 0000147,0.00000320,-0.00003110,0.00005513,-0.00007056,0.00011701,0.000
 04643,-0.00007923,-0.00000119,-0.00001095,0.00006717,0.00000297,0.0000
 0304,0.00001121,0.00727296,-0.01321861,0.00781671,-0.00010711,0.000325
 20,-0.00260046,0.11302281,-0.24234344,0.05157163,0.00935887,-0.0150345
 5,0.00335878,-0.12432758,0.26035477,-0.00001921,-0.00005437,-0.0000422
 0,-0.00007858,0.00005222,0.00006162,0.00031215,0.00052559,0.00027604,0
 .00010551,-0.00026190,-0.00011718,-0.00001863,0.00001256,-0.00003110,0
 .00004736,-0.00001923,-0.00003605,0.00003206,0.00004695,0.00008692,-0.
 00000166,0.00029565,0.00016732,-0.00057346,0.00136392,-0.00126598,-0.0
 0001466,0.00003442,0.00003021,-0.00002481,-0.00002190,-0.00004100,-0.0
 0000260,0.00001546,0.00000728,-0.00000630,-0.00000103,-0.00000459,0.00
 010816,0.00005923,0.00008460,-0.00006687,-0.00003685,0.00011103,-0.000
 00130,-0.00000684,-0.00002420,-0.00000818,-0.00000322,0.00000175,-0.00
 004329,0.00003888,0.00000789,-0.00001119,-0.00000412,-0.00000404,0.000
 00170,0.00000478,0.00000112,-0.00000180,0.00000169,-0.00000438,-0.0000
 0465,-0.00000369,-0.00001946,0.00002712,0.00001104,0.00000441,-0.00000
 553,-0.00000327,-0.00000505,-0.00000493,-0.00000996,0.00000847,-0.0000
 0217,0.00000232,0.00000219,-0.00020739,-0.00012805,-0.00039051,0.00024
 759,-0.00000321,0.00008796,-0.00000535,0.00001331,0.00016671,0.0000088
 1,0.00002742,0.00000267,0.01297815,-0.02651827,0.01197235,0.00363452,0
 .00022256,-0.00645918,-0.03542985,0.05269913,-0.06087909,-0.00923168,0
 .01391137,-0.00382679,0.03376717,-0.05801324,0.06385404,-0.00000328,0.
 00002886,0.00003424,-0.00017294,0.00003488,0.00013466,0.00063436,0.000
 19536,0.00068435,0.00003757,0.00003761,-0.00004273,-0.00000974,-0.0000
 2145,-0.00000120,-0.00000868,0.00004465,-0.00004200,0.00008546,0.00005
 687,0.00010155,-0.00000581,-0.00003636,0.00000862,0.00034835,0.0012976
 4,0.00280402,0.00002081,-0.00002556,-0.00002314,-0.00000900,-0.0000019
 3,0.00001815,0.00000815,-0.00000587,0.00001105,0.00000424,0.00002055,0
 .00000930,0.00002016,-0.00002805,-0.00004877,-0.00000451,-0.00000488,-
 0.00000077,-0.00000098,0.00000300,0.00000916,0.00000013,-0.00000200,0.
 00000225,-0.00001193,0.00000085,0.00000541,0.00000277,-0.00000091,-0.0
 0000113,0.00000013,-0.00000031,-0.00000060,0.00000065,-0.00000034,0.00
 000308,-0.00000207,0.00000070,0.00000098,0.00001423,0.00000451,0.00000
 026,-0.00000191,-0.00000071,-0.00000018,0.00000041,-0.00000254,-0.0000
 0033,-0.00000038,0.00000073,0.00000086,0.00002238,0.00001637,0.0000141
 8,-0.00001266,0.00000457,-0.00004013,-0.00000084,-0.00000358,0.0000022
 6,-0.00000644,-0.00000622,0.00000232,0.00821590,0.00264236,0.00694062,
 0.00064429,-0.00031533,0.00026456,-0.23327742,-0.04500146,-0.13319770,
 -0.01352029,-0.00177606,-0.01137340,-0.00926039,-0.00434189,-0.0055062
 0,0.24624927,0.00001370,-0.00003455,-0.00000886,0.00015175,-0.00002605
 ,-0.00004388,-0.00036912,0.00092497,-0.00037725,-0.00004530,-0.0002261
 1,-0.00018874,0.00003546,0.00013143,-0.00002106,0.00002687,-0.00004743
 ,0.00005724,-0.00007155,-0.00004385,-0.00011349,-0.00002761,0.00000638
 ,-0.00002183,0.00080515,-0.00079603,-0.00373311,-0.00002414,0.00003918
 ,-0.00000365,0.00001494,-0.00001364,-0.00002047,-0.00000572,0.00000441
 ,-0.00001155,0.00000752,0.00000942,0.00000985,-0.00006860,0.00002222,0
 .00004842,0.00000280,0.00002314,-0.00000648,-0.00000290,-0.00001777,-0
 .00003546,-0.00000257,0.00000435,-0.00000453,0.00004815,-0.00003662,-0
 .00001297,-0.00000134,-0.00001417,0.00001191,0.00000171,0.00000199,0.0
 0000102,-0.00000127,-0.00000029,-0.00000237,0.00000701,-0.00000144,0.0
 0000139,-0.00003563,-0.00000516,0.00000830,0.00000436,0.00000271,0.000
 00094,-0.00000060,0.00000837,-0.00000417,0.00000209,-0.00000309,-0.000
 00453,-0.00002297,-0.00002047,0.00001939,0.00008317,0.00002039,-0.0000
 1377,0.00000050,0.00001212,0.00002234,0.00000842,0.00001429,-0.0000104
 6,-0.01530192,-0.00465252,-0.00612263,0.00058510,0.00046821,0.00139069
 ,-0.04102908,-0.05822324,-0.03165250,-0.01328237,-0.00387340,-0.011457
 37,0.02130805,0.00799156,0.01575063,0.04718594,0.05835070,0.00000627,-
 0.00002649,0.00003218,0.00041157,-0.00008988,-0.00020127,-0.00115994,0
 .00021369,-0.00010514,-0.00012358,-0.00032895,-0.00002845,0.00004292,0
 .00015124,-0.00001501,-0.00002170,-0.00012535,0.00014753,-0.00017799,-
 0.00011680,-0.00031738,0.00015993,0.00029889,0.00010522,0.00152876,-0.
 00406385,-0.00583312,-0.00001988,0.00006777,-0.00004365,0.00001274,-0.
 00001070,0.00001191,-0.00000949,0.00001028,-0.00002063,0.00000719,-0.0
 0000336,-0.00000651,-0.00001978,-0.00008216,-0.00007955,0.00002601,0.0
 0002434,-0.00004425,-0.00000006,-0.00002027,-0.00004867,0.00000776,0.0
 0000902,-0.00000994,0.00007871,-0.00001410,-0.00001322,-0.00000726,-0.
 00004607,0.00002917,0.00000218,0.00000395,-0.00000085,0.00000197,0.000
 00434,-0.00000167,-0.00000436,0.00000123,-0.00000715,-0.00006867,-0.00
 001984,0.00000280,0.00000679,0.00000415,-0.00000025,0.00000615,0.00000
 926,0.00000014,0.00000493,-0.00000149,-0.00000211,-0.00012495,-0.00016
 439,-0.00022558,-0.00009561,-0.00003598,0.00004922,0.00001742,0.000004
 96,-0.00001025,0.00001064,0.00001148,0.00003265,-0.02543821,-0.0031337
 9,-0.01539642,0.00064959,0.00221506,0.00277355,-0.12626382,-0.03266361
 ,-0.13691072,0.01428916,0.00270508,0.01112925,-0.00296183,-0.00133666,
 -0.00378380,0.13922642,0.03654899,0.14879198\\-0.00000108,0.00001095,-
 0.00000518,-0.00000802,0.00000818,-0.00000503,-0.00000376,-0.00000223,
 -0.00000491,-0.00000180,-0.00000531,0.00000524,-0.00000341,-0.00000192
 ,0.00000028,-0.00000018,0.00001223,-0.00000514,-0.00001058,0.00000464,
 -0.00000114,0.00000813,-0.00000114,-0.00000218,-0.00000446,0.00000256,
 0.00000135,0.00000326,0.00000971,-0.00000411,0.00000422,0.00001024,-0.
 00000417,-0.00000079,0.00001776,-0.00000788,-0.00001107,0.00001021,-0.
 00000566,-0.00001165,-0.00000198,0.00000041,-0.00000053,-0.00000879,0.
 00000286,0.00000505,-0.00000335,0.00000251,-0.00000372,0.00000648,-0.0
 0000236,-0.00000683,-0.00000779,0.00000348,0.00001526,0.00000889,-0.00
 000694,0.00000771,0.00000886,-0.00000292,0.00001370,0.00001831,-0.0000
 0342,0.00001151,0.00000766,-0.00000061,-0.00000156,-0.00001251,0.00000
 325,0.00000014,-0.00001314,0.00000587,-0.00000303,-0.00001573,0.000006
 19,-0.00000919,-0.00001494,0.00000584,0.00001241,-0.00000130,0.0000064
 4,0.00000827,-0.00000669,0.00000189,0.00001118,-0.00001049,0.00000534,
 0.00001685,-0.00000256,0.00000353,-0.00000539,-0.00000548,0.00000111,-
 0.00001055,-0.00000938,0.00000316,-0.00000570,-0.00000411,0.00000101,-
 0.00000927,0.00000040,-0.00000116,0.00000048,-0.00000038,0.00000028,-0
 .00000557,-0.00000785,0.00000277\\\@


 IT WAS AN ACT OF DESPARATION. FOR SIX YEARS I HAD STRUGGLED WITH THE
 BLACKBODY THEORY. I KNEW THE PROBLEM WAS FUNDAMENTAL, AND I KNEW
 THE ANSWER. I HAD TO FIND A THEORETICAL EXPLANATION AT ANY COST,
 EXCEPT FOR THE INVIOLABLITY OF THE TWO LAWS OF THERMODYNAMICS.
   -- MAX PLANCK, 1931
 Job cpu time:       0 days  6 hours 54 minutes 39.0 seconds.
 File lengths (MBytes):  RWF=    766 Int=      0 D2E=      0 Chk=     19 Scr=      1
 Normal termination of Gaussian 09 at Mon Jan  9 18:03:10 2017.
