 Entering Gaussian System, Link 0=g09
 Initial command:
 /share/apps//g09/l1.exe "/scratch/Gau-40589.inp" -scrdir="/scratch/"
 Entering Link 1 = /share/apps//g09/l1.exe PID=     40591.
  
 Copyright (c) 1988,1990,1992,1993,1995,1998,2003,2009,2013,
            Gaussian, Inc.  All Rights Reserved.
  
 This is part of the Gaussian(R) 09 program.  It is based on
 the Gaussian(R) 03 system (copyright 2003, Gaussian, Inc.),
 the Gaussian(R) 98 system (copyright 1998, Gaussian, Inc.),
 the Gaussian(R) 94 system (copyright 1995, Gaussian, Inc.),
 the Gaussian 92(TM) system (copyright 1992, Gaussian, Inc.),
 the Gaussian 90(TM) system (copyright 1990, Gaussian, Inc.),
 the Gaussian 88(TM) system (copyright 1988, Gaussian, Inc.),
 the Gaussian 86(TM) system (copyright 1986, Carnegie Mellon
 University), and the Gaussian 82(TM) system (copyright 1983,
 Carnegie Mellon University). Gaussian is a federally registered
 trademark of Gaussian, Inc.
  
 This software contains proprietary and confidential information,
 including trade secrets, belonging to Gaussian, Inc.
  
 This software is provided under written license and may be
 used, copied, transmitted, or stored only in accord with that
 written license.
  
 The following legend is applicable only to US Government
 contracts under FAR:
  
                    RESTRICTED RIGHTS LEGEND
  
 Use, reproduction and disclosure by the US Government is
 subject to restrictions as set forth in subparagraphs (a)
 and (c) of the Commercial Computer Software - Restricted
 Rights clause in FAR 52.227-19.
  
 Gaussian, Inc.
 340 Quinnipiac St., Bldg. 40, Wallingford CT 06492
  
  
 ---------------------------------------------------------------
 Warning -- This program may not be used in any manner that
 competes with the business of Gaussian, Inc. or will provide
 assistance to any competitor of Gaussian, Inc.  The licensee
 of this program is prohibited from giving any competitor of
 Gaussian, Inc. access to this program.  By using this program,
 the user acknowledges that Gaussian, Inc. is engaged in the
 business of creating and licensing software in the field of
 computational chemistry and represents and warrants to the
 licensee that it is not a competitor of Gaussian, Inc. and that
 it will not use this program in any manner prohibited above.
 ---------------------------------------------------------------
  

 Cite this work as:
 Gaussian 09, Revision D.01,
 M. J. Frisch, G. W. Trucks, H. B. Schlegel, G. E. Scuseria, 
 M. A. Robb, J. R. Cheeseman, G. Scalmani, V. Barone, B. Mennucci, 
 G. A. Petersson, H. Nakatsuji, M. Caricato, X. Li, H. P. Hratchian, 
 A. F. Izmaylov, J. Bloino, G. Zheng, J. L. Sonnenberg, M. Hada, 
 M. Ehara, K. Toyota, R. Fukuda, J. Hasegawa, M. Ishida, T. Nakajima, 
 Y. Honda, O. Kitao, H. Nakai, T. Vreven, J. A. Montgomery, Jr., 
 J. E. Peralta, F. Ogliaro, M. Bearpark, J. J. Heyd, E. Brothers, 
 K. N. Kudin, V. N. Staroverov, T. Keith, R. Kobayashi, J. Normand, 
 K. Raghavachari, A. Rendell, J. C. Burant, S. S. Iyengar, J. Tomasi, 
 M. Cossi, N. Rega, J. M. Millam, M. Klene, J. E. Knox, J. B. Cross, 
 V. Bakken, C. Adamo, J. Jaramillo, R. Gomperts, R. E. Stratmann, 
 O. Yazyev, A. J. Austin, R. Cammi, C. Pomelli, J. W. Ochterski, 
 R. L. Martin, K. Morokuma, V. G. Zakrzewski, G. A. Voth, 
 P. Salvador, J. J. Dannenberg, S. Dapprich, A. D. Daniels, 
 O. Farkas, J. B. Foresman, J. V. Ortiz, J. Cioslowski, 
 and D. J. Fox, Gaussian, Inc., Wallingford CT, 2013.
 
 ******************************************
 Gaussian 09:  EM64L-G09RevD.01 24-Apr-2013
                24-Oct-2017 
 ******************************************
 %nproc=10
 Will use up to   10 processors via shared memory.
 %mem=60GB
 %chk=Ac-4_cGalMe.chk
 -------------------------------------------------------------------
 #P PBE1PBE/6-311+G(d,p) opt optcyc=999 freq EmpiricalDispersion=GD3
 -------------------------------------------------------------------
 1/6=999,14=-1,18=20,19=15,26=3,38=1/1,3;
 2/9=110,12=2,17=6,18=5,40=1/2;
 3/5=4,6=6,7=111,11=2,16=1,25=1,30=1,71=1,74=-13,124=31/1,2,3;
 4//1;
 5/5=2,38=5/2;
 6/7=2,8=2,9=2,10=2,28=1/1;
 7//1,2,3,16;
 1/6=999,14=-1,18=20,19=15,26=3/3(2);
 2/9=110/2;
 99//99;
 2/9=110/2;
 3/5=4,6=6,7=111,11=2,16=1,25=1,30=1,71=1,74=-13,124=31/1,2,3;
 4/5=5,16=3,69=1/1;
 5/5=2,38=5/2;
 7//1,2,3,16;
 1/6=999,14=-1,18=20,19=15,26=3/3(-5);
 2/9=110/2;
 6/7=2,8=2,9=2,10=2,19=2,28=1/1;
 99/9=1/99;
 Leave Link    1 at Tue Oct 24 14:10:24 2017, MaxMem=  8053063680 cpu:         0.7
 (Enter /share/apps//g09/l101.exe)
 -------
 disacch
 -------
 Symbolic Z-matrix:
 Charge =  1 Multiplicity = 1
 C                     0.42262  -1.02762   4.23626 
 C                     1.03296  -0.76664   2.85174 
 C                     0.95767   0.67853   2.38961 
 C                     1.64111   0.88555   1.00986 
 C                     1.42961  -0.35422   0.11383 
 C                     0.24224  -1.16695   0.6443 
 O                     0.316    -1.62384   1.89855 
 O                     1.15621   2.01263   0.31367 
 O                    -0.45901   1.13987   2.32637 
 O                     0.52734  -2.36879   4.64118 
 H                    -0.65205  -0.7933    4.21203 
 H                     0.91078  -0.34042   4.95693 
 H                     2.09341  -1.07071   2.83209 
 H                     1.38033   1.34479   3.15219 
 H                     2.72835   0.95873   1.20157 
 H                     1.20631  -0.00891  -0.9112 
 H                    -0.14952  -1.95151  -0.01094 
 O                     2.6101   -1.1278    0.17439 
 C                     1.81835  -2.73458   5.14072 
 H                     1.71773  -3.75291   5.53123 
 H                     2.59053  -2.73741   4.35141 
 H                     2.13275  -2.06107   5.95663 
 C                     2.73611  -2.12037  -0.86281 
 H                     2.04906  -2.96723  -0.70989 
 H                     2.56485  -1.671    -1.85392 
 H                     3.76626  -2.48569  -0.80224 
 C                     1.60437   3.27478   0.84085 
 H                     1.1389    3.50365   1.81359 
 H                     2.70117   3.28727   0.94131 
 H                     1.29969   4.0325    0.11163 
 C                    -1.23294   0.82064   1.32143 
 O                    -1.03052  -0.12584   0.49211 
 C                    -2.46224   1.63756   1.17749 
 H                    -2.19759   2.53466   0.59613 
 H                    -2.81847   1.96685   2.15975 
 H                    -3.23366   1.0825    0.63649 
 
 NAtoms=     36 NQM=       36 NQMF=       0 NMMI=      0 NMMIF=      0
                NMic=       0 NMicF=      0.
                    Isotopes and Nuclear Properties:
 (Nuclear quadrupole moments (NQMom) in fm**2, nuclear magnetic moments (NMagM)
  in nuclear magnetons)

  Atom         1           2           3           4           5           6           7           8           9          10
 IAtWgt=          12          12          12          12          12          12          16          16          16          16
 AtmWgt=  12.0000000  12.0000000  12.0000000  12.0000000  12.0000000  12.0000000  15.9949146  15.9949146  15.9949146  15.9949146
 NucSpn=           0           0           0           0           0           0           0           0           0           0
 AtZEff=   0.0000000   0.0000000   0.0000000   0.0000000   0.0000000   0.0000000   0.0000000   0.0000000   0.0000000   0.0000000
 NQMom=    0.0000000   0.0000000   0.0000000   0.0000000   0.0000000   0.0000000   0.0000000   0.0000000   0.0000000   0.0000000
 NMagM=    0.0000000   0.0000000   0.0000000   0.0000000   0.0000000   0.0000000   0.0000000   0.0000000   0.0000000   0.0000000
 AtZNuc=   6.0000000   6.0000000   6.0000000   6.0000000   6.0000000   6.0000000   8.0000000   8.0000000   8.0000000   8.0000000

  Atom        11          12          13          14          15          16          17          18          19          20
 IAtWgt=           1           1           1           1           1           1           1          16          12           1
 AtmWgt=   1.0078250   1.0078250   1.0078250   1.0078250   1.0078250   1.0078250   1.0078250  15.9949146  12.0000000   1.0078250
 NucSpn=           1           1           1           1           1           1           1           0           0           1
 AtZEff=   0.0000000   0.0000000   0.0000000   0.0000000   0.0000000   0.0000000   0.0000000   0.0000000   0.0000000   0.0000000
 NQMom=    0.0000000   0.0000000   0.0000000   0.0000000   0.0000000   0.0000000   0.0000000   0.0000000   0.0000000   0.0000000
 NMagM=    2.7928460   2.7928460   2.7928460   2.7928460   2.7928460   2.7928460   2.7928460   0.0000000   0.0000000   2.7928460
 AtZNuc=   1.0000000   1.0000000   1.0000000   1.0000000   1.0000000   1.0000000   1.0000000   8.0000000   6.0000000   1.0000000

  Atom        21          22          23          24          25          26          27          28          29          30
 IAtWgt=           1           1          12           1           1           1          12           1           1           1
 AtmWgt=   1.0078250   1.0078250  12.0000000   1.0078250   1.0078250   1.0078250  12.0000000   1.0078250   1.0078250   1.0078250
 NucSpn=           1           1           0           1           1           1           0           1           1           1
 AtZEff=   0.0000000   0.0000000   0.0000000   0.0000000   0.0000000   0.0000000   0.0000000   0.0000000   0.0000000   0.0000000
 NQMom=    0.0000000   0.0000000   0.0000000   0.0000000   0.0000000   0.0000000   0.0000000   0.0000000   0.0000000   0.0000000
 NMagM=    2.7928460   2.7928460   0.0000000   2.7928460   2.7928460   2.7928460   0.0000000   2.7928460   2.7928460   2.7928460
 AtZNuc=   1.0000000   1.0000000   6.0000000   1.0000000   1.0000000   1.0000000   6.0000000   1.0000000   1.0000000   1.0000000

  Atom        31          32          33          34          35          36
 IAtWgt=          12          16          12           1           1           1
 AtmWgt=  12.0000000  15.9949146  12.0000000   1.0078250   1.0078250   1.0078250
 NucSpn=           0           0           0           1           1           1
 AtZEff=   0.0000000   0.0000000   0.0000000   0.0000000   0.0000000   0.0000000
 NQMom=    0.0000000   0.0000000   0.0000000   0.0000000   0.0000000   0.0000000
 NMagM=    0.0000000   0.0000000   0.0000000   2.7928460   2.7928460   2.7928460
 AtZNuc=   6.0000000   8.0000000   6.0000000   1.0000000   1.0000000   1.0000000
 Leave Link  101 at Tue Oct 24 14:10:24 2017, MaxMem=  8053063680 cpu:         3.2
 (Enter /share/apps//g09/l103.exe)

 GradGradGradGradGradGradGradGradGradGradGradGradGradGradGradGradGradGrad
 Berny optimization.
 Initialization pass.
                           ----------------------------
                           !    Initial Parameters    !
                           ! (Angstroms and Degrees)  !
 --------------------------                            --------------------------
 ! Name  Definition              Value          Derivative Info.                !
 --------------------------------------------------------------------------------
 ! R1    R(1,2)                  1.5354         estimate D2E/DX2                !
 ! R2    R(1,10)                 1.4049         estimate D2E/DX2                !
 ! R3    R(1,11)                 1.1002         estimate D2E/DX2                !
 ! R4    R(1,12)                 1.109          estimate D2E/DX2                !
 ! R5    R(2,3)                  1.5191         estimate D2E/DX2                !
 ! R6    R(2,7)                  1.4688         estimate D2E/DX2                !
 ! R7    R(2,13)                 1.1034         estimate D2E/DX2                !
 ! R8    R(3,4)                  1.5536         estimate D2E/DX2                !
 ! R9    R(3,9)                  1.4912         estimate D2E/DX2                !
 ! R10   R(3,14)                 1.0973         estimate D2E/DX2                !
 ! R11   R(4,5)                  1.5442         estimate D2E/DX2                !
 ! R12   R(4,8)                  1.4107         estimate D2E/DX2                !
 ! R13   R(4,15)                 1.1064         estimate D2E/DX2                !
 ! R14   R(5,6)                  1.5336         estimate D2E/DX2                !
 ! R15   R(5,16)                 1.1044         estimate D2E/DX2                !
 ! R16   R(5,18)                 1.4127         estimate D2E/DX2                !
 ! R17   R(6,7)                  1.3369         estimate D2E/DX2                !
 ! R18   R(6,17)                 1.0947         estimate D2E/DX2                !
 ! R19   R(6,32)                 1.6514         estimate D2E/DX2                !
 ! R20   R(8,27)                 1.4394         estimate D2E/DX2                !
 ! R21   R(9,31)                 1.308          estimate D2E/DX2                !
 ! R22   R(10,19)                1.4318         estimate D2E/DX2                !
 ! R23   R(18,23)                1.4411         estimate D2E/DX2                !
 ! R24   R(19,20)                1.0953         estimate D2E/DX2                !
 ! R25   R(19,21)                1.1042         estimate D2E/DX2                !
 ! R26   R(19,22)                1.1037         estimate D2E/DX2                !
 ! R27   R(23,24)                1.1012         estimate D2E/DX2                !
 ! R28   R(23,25)                1.1016         estimate D2E/DX2                !
 ! R29   R(23,26)                1.0947         estimate D2E/DX2                !
 ! R30   R(27,28)                1.1024         estimate D2E/DX2                !
 ! R31   R(27,29)                1.1015         estimate D2E/DX2                !
 ! R32   R(27,30)                1.0949         estimate D2E/DX2                !
 ! R33   R(31,32)                1.2746         estimate D2E/DX2                !
 ! R34   R(31,33)                1.483          estimate D2E/DX2                !
 ! R35   R(33,34)                1.1013         estimate D2E/DX2                !
 ! R36   R(33,35)                1.0955         estimate D2E/DX2                !
 ! R37   R(33,36)                1.0936         estimate D2E/DX2                !
 ! A1    A(2,1,10)             113.1123         estimate D2E/DX2                !
 ! A2    A(2,1,11)             109.404          estimate D2E/DX2                !
 ! A3    A(2,1,12)             107.7984         estimate D2E/DX2                !
 ! A4    A(10,1,11)            106.4085         estimate D2E/DX2                !
 ! A5    A(10,1,12)            111.8047         estimate D2E/DX2                !
 ! A6    A(11,1,12)            108.1981         estimate D2E/DX2                !
 ! A7    A(1,2,3)              114.6016         estimate D2E/DX2                !
 ! A8    A(1,2,7)              106.9745         estimate D2E/DX2                !
 ! A9    A(1,2,13)             110.5647         estimate D2E/DX2                !
 ! A10   A(3,2,7)              109.4863         estimate D2E/DX2                !
 ! A11   A(3,2,13)             107.7212         estimate D2E/DX2                !
 ! A12   A(7,2,13)             107.2626         estimate D2E/DX2                !
 ! A13   A(2,3,4)              112.0323         estimate D2E/DX2                !
 ! A14   A(2,3,9)              110.7498         estimate D2E/DX2                !
 ! A15   A(2,3,14)             110.3111         estimate D2E/DX2                !
 ! A16   A(4,3,9)              109.8176         estimate D2E/DX2                !
 ! A17   A(4,3,14)             111.521          estimate D2E/DX2                !
 ! A18   A(9,3,14)             101.9789         estimate D2E/DX2                !
 ! A19   A(3,4,5)              110.3703         estimate D2E/DX2                !
 ! A20   A(3,4,8)              113.1744         estimate D2E/DX2                !
 ! A21   A(3,4,15)             106.691          estimate D2E/DX2                !
 ! A22   A(5,4,8)              107.9385         estimate D2E/DX2                !
 ! A23   A(5,4,15)             106.7517         estimate D2E/DX2                !
 ! A24   A(8,4,15)             111.7421         estimate D2E/DX2                !
 ! A25   A(4,5,6)              109.318          estimate D2E/DX2                !
 ! A26   A(4,5,16)             108.3731         estimate D2E/DX2                !
 ! A27   A(4,5,18)             107.4763         estimate D2E/DX2                !
 ! A28   A(6,5,16)             109.2805         estimate D2E/DX2                !
 ! A29   A(6,5,18)             109.9968         estimate D2E/DX2                !
 ! A30   A(16,5,18)            112.3306         estimate D2E/DX2                !
 ! A31   A(5,6,7)              117.5757         estimate D2E/DX2                !
 ! A32   A(5,6,17)             116.7349         estimate D2E/DX2                !
 ! A33   A(5,6,32)             103.3413         estimate D2E/DX2                !
 ! A34   A(7,6,17)             109.6556         estimate D2E/DX2                !
 ! A35   A(7,6,32)             110.1478         estimate D2E/DX2                !
 ! A36   A(17,6,32)             96.9415         estimate D2E/DX2                !
 ! A37   A(2,7,6)              115.869          estimate D2E/DX2                !
 ! A38   A(4,8,27)             114.381          estimate D2E/DX2                !
 ! A39   A(3,9,31)             121.2782         estimate D2E/DX2                !
 ! A40   A(1,10,19)            114.3093         estimate D2E/DX2                !
 ! A41   A(5,18,23)            114.7948         estimate D2E/DX2                !
 ! A42   A(10,19,20)           106.2058         estimate D2E/DX2                !
 ! A43   A(10,19,21)           112.4455         estimate D2E/DX2                !
 ! A44   A(10,19,22)           111.0305         estimate D2E/DX2                !
 ! A45   A(20,19,21)           108.4649         estimate D2E/DX2                !
 ! A46   A(20,19,22)           109.266          estimate D2E/DX2                !
 ! A47   A(21,19,22)           109.3165         estimate D2E/DX2                !
 ! A48   A(18,23,24)           112.0352         estimate D2E/DX2                !
 ! A49   A(18,23,25)           110.6691         estimate D2E/DX2                !
 ! A50   A(18,23,26)           105.8018         estimate D2E/DX2                !
 ! A51   A(24,23,25)           109.9775         estimate D2E/DX2                !
 ! A52   A(24,23,26)           108.8328         estimate D2E/DX2                !
 ! A53   A(25,23,26)           109.4029         estimate D2E/DX2                !
 ! A54   A(8,27,28)            111.948          estimate D2E/DX2                !
 ! A55   A(8,27,29)            110.6947         estimate D2E/DX2                !
 ! A56   A(8,27,30)            106.0378         estimate D2E/DX2                !
 ! A57   A(28,27,29)           109.7317         estimate D2E/DX2                !
 ! A58   A(28,27,30)           109.0578         estimate D2E/DX2                !
 ! A59   A(29,27,30)           109.2689         estimate D2E/DX2                !
 ! A60   A(9,31,32)            125.9573         estimate D2E/DX2                !
 ! A61   A(9,31,33)            115.5064         estimate D2E/DX2                !
 ! A62   A(32,31,33)           118.5254         estimate D2E/DX2                !
 ! A63   A(6,32,31)            122.046          estimate D2E/DX2                !
 ! A64   A(31,33,34)           107.5037         estimate D2E/DX2                !
 ! A65   A(31,33,35)           110.3708         estimate D2E/DX2                !
 ! A66   A(31,33,36)           110.681          estimate D2E/DX2                !
 ! A67   A(34,33,35)           107.8551         estimate D2E/DX2                !
 ! A68   A(34,33,36)           108.7738         estimate D2E/DX2                !
 ! A69   A(35,33,36)           111.5156         estimate D2E/DX2                !
 ! D1    D(10,1,2,3)          -179.0815         estimate D2E/DX2                !
 ! D2    D(10,1,2,7)            59.3606         estimate D2E/DX2                !
 ! D3    D(10,1,2,13)          -57.1207         estimate D2E/DX2                !
 ! D4    D(11,1,2,3)            62.4965         estimate D2E/DX2                !
 ! D5    D(11,1,2,7)           -59.0614         estimate D2E/DX2                !
 ! D6    D(11,1,2,13)         -175.5427         estimate D2E/DX2                !
 ! D7    D(12,1,2,3)           -54.9445         estimate D2E/DX2                !
 ! D8    D(12,1,2,7)          -176.5024         estimate D2E/DX2                !
 ! D9    D(12,1,2,13)           67.0164         estimate D2E/DX2                !
 ! D10   D(2,1,10,19)           78.8571         estimate D2E/DX2                !
 ! D11   D(11,1,10,19)        -160.9949         estimate D2E/DX2                !
 ! D12   D(12,1,10,19)         -43.0604         estimate D2E/DX2                !
 ! D13   D(1,2,3,4)            177.7313         estimate D2E/DX2                !
 ! D14   D(1,2,3,9)            -59.2835         estimate D2E/DX2                !
 ! D15   D(1,2,3,14)            52.8579         estimate D2E/DX2                !
 ! D16   D(7,2,3,4)            -62.0952         estimate D2E/DX2                !
 ! D17   D(7,2,3,9)             60.89           estimate D2E/DX2                !
 ! D18   D(7,2,3,14)           173.0314         estimate D2E/DX2                !
 ! D19   D(13,2,3,4)            54.2344         estimate D2E/DX2                !
 ! D20   D(13,2,3,9)           177.2196         estimate D2E/DX2                !
 ! D21   D(13,2,3,14)          -70.639          estimate D2E/DX2                !
 ! D22   D(1,2,7,6)            151.2828         estimate D2E/DX2                !
 ! D23   D(3,2,7,6)             26.5516         estimate D2E/DX2                !
 ! D24   D(13,2,7,6)           -90.0682         estimate D2E/DX2                !
 ! D25   D(2,3,4,5)             35.0934         estimate D2E/DX2                !
 ! D26   D(2,3,4,8)            156.1794         estimate D2E/DX2                !
 ! D27   D(2,3,4,15)           -80.5207         estimate D2E/DX2                !
 ! D28   D(9,3,4,5)            -88.4173         estimate D2E/DX2                !
 ! D29   D(9,3,4,8)             32.6687         estimate D2E/DX2                !
 ! D30   D(9,3,4,15)           155.9685         estimate D2E/DX2                !
 ! D31   D(14,3,4,5)           159.2951         estimate D2E/DX2                !
 ! D32   D(14,3,4,8)           -79.6189         estimate D2E/DX2                !
 ! D33   D(14,3,4,15)           43.6809         estimate D2E/DX2                !
 ! D34   D(2,3,9,31)           -78.958          estimate D2E/DX2                !
 ! D35   D(4,3,9,31)            45.3008         estimate D2E/DX2                !
 ! D36   D(14,3,9,31)          163.665          estimate D2E/DX2                !
 ! D37   D(3,4,5,6)             19.5695         estimate D2E/DX2                !
 ! D38   D(3,4,5,16)           138.5896         estimate D2E/DX2                !
 ! D39   D(3,4,5,18)           -99.789          estimate D2E/DX2                !
 ! D40   D(8,4,5,6)           -104.5857         estimate D2E/DX2                !
 ! D41   D(8,4,5,16)            14.4343         estimate D2E/DX2                !
 ! D42   D(8,4,5,18)           136.0557         estimate D2E/DX2                !
 ! D43   D(15,4,5,6)           135.1457         estimate D2E/DX2                !
 ! D44   D(15,4,5,16)         -105.8343         estimate D2E/DX2                !
 ! D45   D(15,4,5,18)           15.7871         estimate D2E/DX2                !
 ! D46   D(3,4,8,27)            73.7784         estimate D2E/DX2                !
 ! D47   D(5,4,8,27)          -163.7714         estimate D2E/DX2                !
 ! D48   D(15,4,8,27)          -46.6899         estimate D2E/DX2                !
 ! D49   D(4,5,6,7)            -59.0106         estimate D2E/DX2                !
 ! D50   D(4,5,6,17)           167.5206         estimate D2E/DX2                !
 ! D51   D(4,5,6,32)            62.5377         estimate D2E/DX2                !
 ! D52   D(16,5,6,7)          -177.4664         estimate D2E/DX2                !
 ! D53   D(16,5,6,17)           49.0648         estimate D2E/DX2                !
 ! D54   D(16,5,6,32)          -55.9182         estimate D2E/DX2                !
 ! D55   D(18,5,6,7)            58.7781         estimate D2E/DX2                !
 ! D56   D(18,5,6,17)          -74.6907         estimate D2E/DX2                !
 ! D57   D(18,5,6,32)         -179.6737         estimate D2E/DX2                !
 ! D58   D(4,5,18,23)         -164.0669         estimate D2E/DX2                !
 ! D59   D(6,5,18,23)           77.0094         estimate D2E/DX2                !
 ! D60   D(16,5,18,23)         -44.9515         estimate D2E/DX2                !
 ! D61   D(5,6,7,2)             33.5473         estimate D2E/DX2                !
 ! D62   D(17,6,7,2)           170.054          estimate D2E/DX2                !
 ! D63   D(32,6,7,2)           -84.4158         estimate D2E/DX2                !
 ! D64   D(5,6,32,31)          -78.2505         estimate D2E/DX2                !
 ! D65   D(7,6,32,31)           48.1753         estimate D2E/DX2                !
 ! D66   D(17,6,32,31)         162.1044         estimate D2E/DX2                !
 ! D67   D(4,8,27,28)          -70.7339         estimate D2E/DX2                !
 ! D68   D(4,8,27,29)           52.0404         estimate D2E/DX2                !
 ! D69   D(4,8,27,30)          170.4414         estimate D2E/DX2                !
 ! D70   D(3,9,31,32)           18.0207         estimate D2E/DX2                !
 ! D71   D(3,9,31,33)         -163.2026         estimate D2E/DX2                !
 ! D72   D(1,10,19,20)         173.0099         estimate D2E/DX2                !
 ! D73   D(1,10,19,21)         -68.5053         estimate D2E/DX2                !
 ! D74   D(1,10,19,22)          54.3328         estimate D2E/DX2                !
 ! D75   D(5,18,23,24)         -72.601          estimate D2E/DX2                !
 ! D76   D(5,18,23,25)          50.5344         estimate D2E/DX2                !
 ! D77   D(5,18,23,26)         168.944          estimate D2E/DX2                !
 ! D78   D(9,31,32,6)            3.876          estimate D2E/DX2                !
 ! D79   D(33,31,32,6)        -174.8674         estimate D2E/DX2                !
 ! D80   D(9,31,33,34)          85.6739         estimate D2E/DX2                !
 ! D81   D(9,31,33,35)         -31.7162         estimate D2E/DX2                !
 ! D82   D(9,31,33,36)        -155.657          estimate D2E/DX2                !
 ! D83   D(32,31,33,34)        -95.4531         estimate D2E/DX2                !
 ! D84   D(32,31,33,35)        147.1567         estimate D2E/DX2                !
 ! D85   D(32,31,33,36)         23.2159         estimate D2E/DX2                !
 --------------------------------------------------------------------------------
 Trust Radius=3.00D-01 FncErr=1.00D-07 GrdErr=1.00D-06
 Number of steps in this run=    216 maximum allowed number of steps=    216.
 GradGradGradGradGradGradGradGradGradGradGradGradGradGradGradGradGradGrad

 Leave Link  103 at Tue Oct 24 14:10:24 2017, MaxMem=  8053063680 cpu:         0.1
 (Enter /share/apps//g09/l202.exe)
                          Input orientation:                          
 ---------------------------------------------------------------------
 Center     Atomic      Atomic             Coordinates (Angstroms)
 Number     Number       Type             X           Y           Z
 ---------------------------------------------------------------------
      1          6           0        0.422620   -1.027620    4.236260
      2          6           0        1.032960   -0.766640    2.851740
      3          6           0        0.957670    0.678530    2.389610
      4          6           0        1.641110    0.885550    1.009860
      5          6           0        1.429610   -0.354220    0.113830
      6          6           0        0.242240   -1.166950    0.644300
      7          8           0        0.316000   -1.623840    1.898550
      8          8           0        1.156210    2.012630    0.313670
      9          8           0       -0.459010    1.139870    2.326370
     10          8           0        0.527340   -2.368790    4.641180
     11          1           0       -0.652050   -0.793300    4.212030
     12          1           0        0.910780   -0.340420    4.956930
     13          1           0        2.093410   -1.070710    2.832090
     14          1           0        1.380330    1.344790    3.152190
     15          1           0        2.728350    0.958730    1.201570
     16          1           0        1.206310   -0.008910   -0.911200
     17          1           0       -0.149520   -1.951510   -0.010940
     18          8           0        2.610100   -1.127800    0.174390
     19          6           0        1.818350   -2.734580    5.140720
     20          1           0        1.717730   -3.752910    5.531230
     21          1           0        2.590530   -2.737410    4.351410
     22          1           0        2.132750   -2.061070    5.956630
     23          6           0        2.736110   -2.120370   -0.862810
     24          1           0        2.049060   -2.967230   -0.709890
     25          1           0        2.564850   -1.671000   -1.853920
     26          1           0        3.766260   -2.485690   -0.802240
     27          6           0        1.604370    3.274780    0.840850
     28          1           0        1.138900    3.503650    1.813590
     29          1           0        2.701170    3.287270    0.941310
     30          1           0        1.299690    4.032500    0.111630
     31          6           0       -1.232940    0.820640    1.321430
     32          8           0       -1.030520   -0.125840    0.492110
     33          6           0       -2.462240    1.637560    1.177490
     34          1           0       -2.197590    2.534660    0.596130
     35          1           0       -2.818470    1.966850    2.159750
     36          1           0       -3.233660    1.082500    0.636490
 ---------------------------------------------------------------------
                    Distance matrix (angstroms):
                    1          2          3          4          5
     1  C    0.000000
     2  C    1.535422   0.000000
     3  C    2.570475   1.519128   0.000000
     4  C    3.943931   2.547960   1.553595   0.000000
     5  C    4.296734   2.797065   2.543320   1.544225   0.000000
     6  C    3.599184   2.378713   2.638891   2.510623   1.533550
     7  O    2.414898   1.468807   2.440039   2.973672   2.457089
     8  O    5.016771   3.765811   2.475635   1.410715   2.390954
     9  O    3.020425   2.477250   1.491246   2.491662   3.270248
    10  O    1.404871   2.454513   3.813255   5.001769   5.036813
    11  H    1.100186   2.165724   2.842305   4.281473   4.617504
    12  H    1.109013   2.151375   2.762533   4.197112   4.870831
    13  H    2.182908   1.103358   2.132026   2.711467   2.888412
    14  H    2.778623   2.160804   1.097302   2.206464   3.481479
    15  H    4.297827   2.928192   2.150641   1.106435   2.143302
    16  H    5.305496   3.842385   3.380790   2.163234   1.104440
    17  H    4.384019   3.316189   3.729024   3.506750   2.249568
    18  O    4.614531   3.128260   3.301598   2.385483   1.412675
    19  C    2.383238   3.119143   4.467516   5.495522   5.575559
    20  H    3.283514   4.070182   5.484991   6.477960   6.401744
    21  H    2.763417   2.925572   4.264216   5.019282   4.998441
    22  H    2.636709   3.539128   4.648640   5.778825   6.127484
    23  C    5.704985   4.304786   4.644882   3.706949   2.404174
    24  H    5.556239   4.308162   4.908116   4.238853   2.808924
    25  H    6.487941   5.030685   5.109879   3.948478   2.625780
    26  H    6.220320   4.876231   5.299846   4.377811   3.292762
    27  C    5.606781   4.550084   3.091503   2.395482   3.705231
    28  H    5.187947   4.395948   2.888935   2.784357   4.225737
    29  H    5.887849   4.781930   3.455849   2.626154   3.944875
    30  H    6.586853   5.532729   4.068819   3.290392   4.388644
    31  C    3.827947   3.161583   2.441306   2.891618   3.150836
    32  O    4.116246   3.199442   2.863637   2.903202   2.499499
    33  C    4.978120   4.560670   3.752967   4.175057   4.499451
    34  H    5.727642   5.140312   4.076451   4.198375   4.662062
    35  H    4.876824   4.773293   3.996478   4.730678   5.255410
    36  H    5.547913   5.150796   4.561126   4.893013   4.907487
                    6          7          8          9         10
     6  C    0.000000
     7  O    1.336911   0.000000
     8  O    3.324814   4.054838   0.000000
     9  O    2.939818   2.902027   2.724263   0.000000
    10  O    4.183390   2.849848   6.190288   4.317630   0.000000
    11  H    3.697035   2.641800   5.132276   2.707420   2.014274
    12  H    4.441720   3.369661   5.211232   3.314729   2.088303
    13  H    2.867493   2.082459   4.089959   3.414274   2.722204
    14  H    3.727412   3.393696   2.924626   2.026609   4.090887
    15  H    3.318103   3.602066   2.090621   3.384856   5.267613
    16  H    2.165656   3.360855   2.364200   3.817702   6.071158
    17  H    1.094692   1.992543   4.186252   3.887857   4.719585
    18  O    2.414355   2.912332   3.463451   4.380957   5.082338
    19  C    5.015913   3.741987   6.802562   5.302669   1.431799
    20  H    5.722442   4.437809   7.796133   6.240883   2.031011
    21  H    4.660845   3.525627   6.397148   5.332334   2.115798
    22  H    5.709144   4.467635   7.027920   5.490175   2.098200
    23  C    3.065906   3.705210   4.578414   5.568557   5.935847
    24  H    2.887808   3.407661   5.161769   5.690128   5.595330
    25  H    3.448143   4.374995   4.500205   5.875334   6.842856
    26  H    4.031162   4.465573   5.319069   6.386376   6.335226
    27  C    4.650053   5.174467   1.439371   3.319962   6.888569
    28  H    4.897524   5.193798   2.114994   2.898916   6.546359
    29  H    5.096531   5.542955   2.098938   4.064044   7.099689
    30  H    5.332562   6.012895   2.035014   4.045418   7.879712
    31  C    2.566160   2.950892   2.853850   1.307968   4.928670
    32  O    1.651360   2.456663   3.063769   2.300686   4.967145
    33  C    3.932401   4.344568   3.738990   2.362319   6.081577
    34  H    4.433622   5.030661   3.405917   2.821671   6.916032
    35  H    4.635217   4.773487   4.382715   2.505735   6.012463
    36  H    4.140286   4.638659   4.498924   3.249257   6.487994
                   11         12         13         14         15
    11  H    0.000000
    12  H    1.789529   0.000000
    13  H    3.085246   2.539071   0.000000
    14  H    3.134527   2.513463   2.538816   0.000000
    15  H    4.853821   4.369677   2.679621   2.402315   0.000000
    16  H    5.506020   5.884912   3.990813   4.286482   2.777900
    17  H    4.407660   5.329126   3.726844   4.817824   4.268702
    18  O    5.201543   5.136180   2.708062   4.061198   2.328667
    19  C    3.276265   2.566995   2.859002   4.559317   5.475906
    20  H    4.014404   3.553319   3.823701   5.635620   6.478183
    21  H    3.783294   2.988942   2.309405   4.423468   4.858183
    22  H    3.522213   2.335219   3.277974   4.475590   5.664321
    23  C    6.244577   6.353694   3.894501   5.474093   3.707099
    24  H    6.020570   6.348910   4.018007   5.827210   4.419081
    25  H    6.922034   7.134008   4.747767   5.963155   4.034629
    26  H    6.894095   6.776724   4.243695   6.000230   4.117832
    27  C    5.745047   5.522033   4.804943   3.019495   2.599526
    28  H    5.236773   4.970865   4.782594   2.551630   3.062277
    29  H    6.212306   5.700073   4.789197   3.225808   2.343197
    30  H    6.626531   6.538395   5.837264   4.058977   3.560492
    31  C    3.361221   4.377266   4.113867   3.233511   3.965508
    32  O    3.798229   4.873326   4.015872   3.879559   3.976019
    33  C    4.288858   5.438183   5.552150   4.330185   5.234846
    34  H    5.151577   6.078209   6.034144   4.555299   5.207206
    35  H    4.064930   5.201444   5.814239   4.359107   5.718534
    36  H    4.792476   6.153640   6.150988   5.261791   5.990008
                   16         17         18         19         20
    16  H    0.000000
    17  H    2.534253   0.000000
    18  O    2.097867   2.885888   0.000000
    19  C    6.665554   5.570037   5.279493   0.000000
    20  H    7.468868   6.119421   6.031854   1.095271   0.000000
    21  H    6.087351   5.211105   4.476463   1.104210   1.784656
    22  H    7.227499   6.390043   5.876492   1.103708   1.793190
    23  C    2.607852   3.013479   1.441131   6.104253   6.677277
    24  H    3.082598   2.520709   2.116653   5.859777   6.299099
    25  H    2.344546   3.292881   2.100275   7.114313   7.719612
    26  H    3.563658   4.030488   2.033317   6.258999   6.776073
    27  C    3.743094   5.578152   4.564907   7.392366   8.449908
    28  H    4.446021   5.894719   5.128522   7.102602   8.173956
    29  H    4.065858   6.039704   4.482109   7.394396   8.461599
    30  H    4.169880   6.158215   5.324454   8.447137   9.495232
    31  C    3.409213   3.260955   4.458820   6.044579   6.880860
    32  O    2.643172   2.088610   3.789325   6.044101   6.789790
    33  C    4.531197   4.431982   5.863622   7.290148   8.092241
    34  H    4.508695   4.968787   6.058495   8.034050   8.900476
    35  H    5.434447   5.214282   6.556515   7.244979   8.041122
    36  H    4.826992   4.374506   6.264862   7.770521   8.476788
                   21         22         23         24         25
    21  H    0.000000
    22  H    1.801036   0.000000
    23  C    5.252620   6.846336   0.000000
    24  H    5.095367   6.728344   1.101178   0.000000
    25  H    6.296349   7.832213   1.101618   1.804177   0.000000
    26  H    5.292052   6.966418   1.094686   1.785829   1.792522
    27  C    7.031570   7.410917   5.769830   6.447110   5.713584
    28  H    6.891922   7.008468   6.429914   7.004900   6.500843
    29  H    6.923712   7.353997   5.700758   6.501575   5.693535
    30  H    8.091581   8.484669   6.393015   7.087501   6.163922
    31  C    6.038164   6.412270   5.401278   5.407933   5.542051
    32  O    5.901398   6.603966   4.472299   4.359141   4.562681
    33  C    7.398960   7.591704   6.731100   6.717002   6.738520
    34  H    8.051270   8.282967   6.938242   7.071812   6.809637
    35  H    7.496047   7.426642   7.529581   7.501522   7.636991
    36  H    7.893892   8.184392   6.938619   6.791184   6.885247
                   26         27         28         29         30
    26  H    0.000000
    27  C    6.368401   0.000000
    28  H    7.043989   1.102391   0.000000
    29  H    6.123843   1.101462   1.802326   0.000000
    30  H    7.028935   1.094866   1.789470   1.791056   0.000000
    31  C    6.358757   3.782075   3.614746   4.658967   4.265428
    32  O    5.500303   4.316072   4.430112   5.077067   4.781886
    33  C    7.727531   4.396718   4.105499   5.425691   4.585184
    34  H    7.920029   3.881052   3.681483   4.968241   3.835262
    35  H    8.482757   4.797050   4.259385   5.804699   5.041919
    36  H    7.987541   5.315486   5.134862   6.338465   5.434081
                   31         32         33         34         35
    31  C    0.000000
    32  O    1.274586   0.000000
    33  C    1.482989   2.372582   0.000000
    34  H    2.096300   2.907083   1.101275   0.000000
    35  H    2.128493   3.218251   1.095521   1.775615   0.000000
    36  H    2.130867   2.516894   1.093554   1.784331   1.809635
                   36
    36  H    0.000000
 Stoichiometry    C11H19O6(1+)
 Framework group  C1[X(C11H19O6)]
 Deg. of freedom   102
 Full point group                 C1      NOp   1
 Largest Abelian subgroup         C1      NOp   1
 Largest concise Abelian subgroup C1      NOp   1
                         Standard orientation:                         
 ---------------------------------------------------------------------
 Center     Atomic      Atomic             Coordinates (Angstroms)
 Number     Number       Type             X           Y           Z
 ---------------------------------------------------------------------
      1          6           0        2.252186   -1.419613    0.388938
      2          6           0        1.255806   -0.251400    0.383594
      3          6           0       -0.111475   -0.583733    0.956172
      4          6           0       -1.052113    0.652611    0.973826
      5          6           0       -0.789235    1.545661   -0.258241
      6          6           0       -0.067704    0.725532   -1.334604
      7          8           0        1.110332    0.181742   -1.012336
      8          8           0       -2.420379    0.309170    0.977527
      9          8           0       -0.749277   -1.693361    0.190829
     10          8           0        3.511591   -1.072621   -0.127936
     11          1           0        1.867860   -2.230722   -0.247304
     12          1           0        2.323903   -1.799236    1.428482
     13          1           0        1.658833    0.604342    0.951638
     14          1           0       -0.008847   -1.025746    1.955254
     15          1           0       -0.776758    1.248714    1.864354
     16          1           0       -1.761775    1.889671   -0.652717
     17          1           0       -0.007636    1.168810   -2.333726
     18          8           0        0.029181    2.617780    0.161765
     19          6           0        4.346988   -0.355173    0.787177
     20          1           0        5.325156   -0.265984    0.302561
     21          1           0        3.967107    0.660043    0.997667
     22          1           0        4.459809   -0.906867    1.736428
     23          6           0        0.081641    3.731690   -0.751093
     24          1           0        0.669393    3.499486   -1.652881
     25          1           0       -0.934070    4.049619   -1.035372
     26          1           0        0.576729    4.541262   -0.205366
     27          6           0       -2.900885   -0.203596    2.233701
     28          1           0       -2.506048   -1.210777    2.445731
     29          1           0       -2.640478    0.479037    3.057970
     30          1           0       -3.990409   -0.258949    2.140939
     31          6           0       -1.329130   -1.477841   -0.961604
     32          8           0       -1.157748   -0.457886   -1.706513
     33          6           0       -2.243361   -2.548887   -1.426682
     34          1           0       -3.230304   -2.360911   -0.975666
     35          1           0       -1.894707   -3.526602   -1.076424
     36          1           0       -2.343663   -2.525278   -2.515371
 ---------------------------------------------------------------------
 Rotational constants (GHZ):      0.5584590      0.3972975      0.3163751
 Leave Link  202 at Tue Oct 24 14:10:24 2017, MaxMem=  8053063680 cpu:         0.3
 (Enter /share/apps//g09/l301.exe)
 Standard basis: 6-311+G(d,p) (5D, 7F)
 Ernie: Thresh=  0.10000D-02 Tol=  0.10000D-05 Strict=F.
 There are   505 symmetry adapted cartesian basis functions of A   symmetry.
 There are   488 symmetry adapted basis functions of A   symmetry.
   488 basis functions,   764 primitive gaussians,   505 cartesian basis functions
    66 alpha electrons       66 beta electrons
       nuclear repulsion energy      1437.9359087438 Hartrees.
 IExCor= 1009 DFT=T Ex+Corr=PBE1PBE ExCW=0 ScaHFX=  0.250000
 ScaDFX=  0.750000  0.750000  1.000000  1.000000 ScalE2=  1.000000  1.000000
 IRadAn=      0 IRanWt=     -1 IRanGd=            0 ICorTp=0 IEmpDi=131
 NAtoms=   36 NActive=   36 NUniq=   36 SFac= 1.00D+00 NAtFMM=   60 NAOKFM=F Big=F
 Integral buffers will be    131072 words long.
 Raffenetti 2 integral format.
 Two-electron integral symmetry is turned on.
 R6Disp:  Grimme-D3 Dispersion energy=       -0.0246668519 Hartrees.
 Nuclear repulsion after empirical dispersion term =     1437.9112418919 Hartrees.
 Leave Link  301 at Tue Oct 24 14:10:25 2017, MaxMem=  8053063680 cpu:         0.7
 (Enter /share/apps//g09/l302.exe)
 NPDir=0 NMtPBC=     1 NCelOv=     1 NCel=       1 NClECP=     1 NCelD=      1
         NCelK=      1 NCelE2=     1 NClLst=     1 CellRange=     0.0.
 One-electron integrals computed using PRISM.
 NBasis=   488 RedAO= T EigKep=  1.46D-06  NBF=   488
 NBsUse=   488 1.00D-06 EigRej= -1.00D+00 NBFU=   488
 Precomputing XC quadrature grid using
 IXCGrd= 4 IRadAn=           0 IRanWt=          -1 IRanGd=           0 AccXCQ= 0.00D+00.
 Generated NRdTot=       0 NPtTot=           0 NUsed=           0 NTot=          32
 NSgBfM=   503   503   503   503   504 MxSgAt=    36 MxSgA2=    36.
 Leave Link  302 at Tue Oct 24 14:10:25 2017, MaxMem=  8053063680 cpu:         5.8
 (Enter /share/apps//g09/l303.exe)
 DipDrv:  MaxL=1.
 Leave Link  303 at Tue Oct 24 14:10:26 2017, MaxMem=  8053063680 cpu:         1.0
 (Enter /share/apps//g09/l401.exe)
 ExpMin= 4.38D-02 ExpMax= 8.59D+03 ExpMxC= 1.30D+03 IAcc=2 IRadAn=         4 AccDes= 0.00D+00
 Harris functional with IExCor= 1009 and IRadAn=       4 diagonalized for initial guess.
 HarFok:  IExCor= 1009 AccDes= 0.00D+00 IRadAn=         4 IDoV= 1 UseB2=F ITyADJ=14
 ICtDFT=  3500011 ScaDFX=  1.000000  1.000000  1.000000  1.000000
 FoFCou: FMM=F IPFlag=           0 FMFlag=      100000 FMFlg1=           0
         NFxFlg=           0 DoJE=T BraDBF=F KetDBF=T FulRan=T
         wScrn=  0.000000 ICntrl=     500 IOpCl=  0 I1Cent=   200000004 NGrid=           0
         NMat0=    1 NMatS0=      1 NMatT0=    0 NMatD0=    1 NMtDS0=    0 NMtDT0=    0
 Petite list used in FoFCou.
 Harris En= -881.102785962828    
 JPrj=0 DoOrth=F DoCkMO=F.
 Leave Link  401 at Tue Oct 24 14:10:27 2017, MaxMem=  8053063680 cpu:        14.0
 (Enter /share/apps//g09/l502.exe)
 Closed shell SCF:
 Using DIIS extrapolation, IDIIS=  1040.
 Integral symmetry usage will be decided dynamically.
 Keep R1 ints in memory in canonical form, NReq=7183782884.
 IVT=      792443 IEndB=      792443 NGot=  8053063680 MDV=   934057652
 LenX=   934057652 LenY=   933802122
 Requested convergence on RMS density matrix=1.00D-08 within 128 cycles.
 Requested convergence on MAX density matrix=1.00D-06.
 Requested convergence on             energy=1.00D-06.
 No special actions if energy rises.
 FoFCou: FMM=F IPFlag=           0 FMFlag=           0 FMFlg1=           0
         NFxFlg=           0 DoJE=F BraDBF=F KetDBF=F FulRan=T
         wScrn=  0.000000 ICntrl=     600 IOpCl=  0 I1Cent=           0 NGrid=           0
         NMat0=    1 NMatS0= 119316 NMatT0=    0 NMatD0=    1 NMtDS0=    0 NMtDT0=    0
 Symmetry not used in FoFCou.

 Cycle   1  Pass 1  IDiag  1:
 E= -880.645135913679    
 DIIS: error= 1.41D-02 at cycle   1 NSaved=   1.
 NSaved= 1 IEnMin= 1 EnMin= -880.645135913679     IErMin= 1 ErrMin= 1.41D-02
 ErrMax= 1.41D-02  0.00D+00 EMaxC= 1.00D-01 BMatC= 3.72D-01 BMatP= 3.72D-01
 IDIUse=3 WtCom= 8.59D-01 WtEn= 1.41D-01
 Coeff-Com:  0.100D+01
 Coeff-En:   0.100D+01
 Coeff:      0.100D+01
 Gap=     0.116 Goal=   None    Shift=    0.000
 GapD=    0.116 DampG=1.000 DampE=0.500 DampFc=0.5000 IDamp=-1.
 Damping current iteration by 5.00D-01
 RMSDP=1.91D-02 MaxDP=2.92D+00              OVMax= 1.38D-01

 Cycle   2  Pass 1  IDiag  1:
 E= -880.769434626936     Delta-E=       -0.124298713257 Rises=F Damp=T
 DIIS: error= 3.57D-03 at cycle   2 NSaved=   2.
 NSaved= 2 IEnMin= 2 EnMin= -880.769434626936     IErMin= 2 ErrMin= 3.57D-03
 ErrMax= 3.57D-03  0.00D+00 EMaxC= 1.00D-01 BMatC= 2.98D-02 BMatP= 3.72D-01
 IDIUse=3 WtCom= 9.64D-01 WtEn= 3.57D-02
 Coeff-Com: -0.488D-02 0.100D+01
 Coeff-En:   0.559D-01 0.944D+00
 Coeff:     -0.271D-02 0.100D+01
 Gap=     0.225 Goal=   None    Shift=    0.000
 RMSDP=8.90D-03 MaxDP=1.41D+00 DE=-1.24D-01 OVMax= 1.03D-01

 Cycle   3  Pass 1  IDiag  1:
 E= -880.903540134576     Delta-E=       -0.134105507640 Rises=F Damp=F
 DIIS: error= 5.63D-03 at cycle   3 NSaved=   3.
 NSaved= 3 IEnMin= 3 EnMin= -880.903540134576     IErMin= 2 ErrMin= 3.57D-03
 ErrMax= 5.63D-03  0.00D+00 EMaxC= 1.00D-01 BMatC= 2.25D-02 BMatP= 2.98D-02
 IDIUse=3 WtCom= 9.44D-01 WtEn= 5.63D-02
 Coeff-Com: -0.910D-01 0.488D+00 0.603D+00
 Coeff-En:   0.000D+00 0.000D+00 0.100D+01
 Coeff:     -0.859D-01 0.461D+00 0.625D+00
 Gap=     0.189 Goal=   None    Shift=    0.000
 RMSDP=2.41D-03 MaxDP=2.89D-01 DE=-1.34D-01 OVMax= 2.29D-02

 Cycle   4  Pass 1  IDiag  1:
 E= -880.917436043549     Delta-E=       -0.013895908973 Rises=F Damp=F
 DIIS: error= 2.70D-03 at cycle   4 NSaved=   4.
 NSaved= 4 IEnMin= 4 EnMin= -880.917436043549     IErMin= 4 ErrMin= 2.70D-03
 ErrMax= 2.70D-03  0.00D+00 EMaxC= 1.00D-01 BMatC= 4.10D-03 BMatP= 2.25D-02
 IDIUse=3 WtCom= 9.73D-01 WtEn= 2.70D-02
 Coeff-Com: -0.457D-01 0.150D+00 0.349D+00 0.546D+00
 Coeff-En:   0.000D+00 0.000D+00 0.127D+00 0.873D+00
 Coeff:     -0.445D-01 0.146D+00 0.343D+00 0.555D+00
 Gap=     0.192 Goal=   None    Shift=    0.000
 RMSDP=1.39D-03 MaxDP=2.52D-01 DE=-1.39D-02 OVMax= 6.53D-03

 Cycle   5  Pass 1  IDiag  1:
 E= -880.920439861870     Delta-E=       -0.003003818321 Rises=F Damp=F
 DIIS: error= 3.62D-04 at cycle   5 NSaved=   5.
 NSaved= 5 IEnMin= 5 EnMin= -880.920439861870     IErMin= 5 ErrMin= 3.62D-04
 ErrMax= 3.62D-04  0.00D+00 EMaxC= 1.00D-01 BMatC= 1.38D-04 BMatP= 4.10D-03
 IDIUse=3 WtCom= 9.96D-01 WtEn= 3.62D-03
 Coeff-Com: -0.133D-01 0.305D-01 0.105D+00 0.240D+00 0.638D+00
 Coeff-En:   0.000D+00 0.000D+00 0.000D+00 0.000D+00 0.100D+01
 Coeff:     -0.132D-01 0.304D-01 0.105D+00 0.239D+00 0.639D+00
 Gap=     0.194 Goal=   None    Shift=    0.000
 RMSDP=1.61D-04 MaxDP=3.14D-02 DE=-3.00D-03 OVMax= 1.88D-03

 Cycle   6  Pass 1  IDiag  1:
 E= -880.920525747874     Delta-E=       -0.000085886003 Rises=F Damp=F
 DIIS: error= 1.91D-04 at cycle   6 NSaved=   6.
 NSaved= 6 IEnMin= 6 EnMin= -880.920525747874     IErMin= 6 ErrMin= 1.91D-04
 ErrMax= 1.91D-04  0.00D+00 EMaxC= 1.00D-01 BMatC= 2.31D-05 BMatP= 1.38D-04
 IDIUse=3 WtCom= 9.98D-01 WtEn= 1.91D-03
 Coeff-Com: -0.532D-02 0.928D-02 0.423D-01 0.112D+00 0.385D+00 0.457D+00
 Coeff-En:   0.000D+00 0.000D+00 0.000D+00 0.000D+00 0.692D-01 0.931D+00
 Coeff:     -0.531D-02 0.926D-02 0.422D-01 0.111D+00 0.385D+00 0.458D+00
 Gap=     0.194 Goal=   None    Shift=    0.000
 RMSDP=7.16D-05 MaxDP=1.50D-02 DE=-8.59D-05 OVMax= 7.98D-04

 Cycle   7  Pass 1  IDiag  1:
 E= -880.920542469658     Delta-E=       -0.000016721785 Rises=F Damp=F
 DIIS: error= 4.22D-05 at cycle   7 NSaved=   7.
 NSaved= 7 IEnMin= 7 EnMin= -880.920542469658     IErMin= 7 ErrMin= 4.22D-05
 ErrMax= 4.22D-05  0.00D+00 EMaxC= 1.00D-01 BMatC= 1.13D-06 BMatP= 2.31D-05
 IDIUse=1 WtCom= 1.00D+00 WtEn= 0.00D+00
 Coeff-Com: -0.179D-02 0.263D-02 0.142D-01 0.414D-01 0.161D+00 0.240D+00
 Coeff-Com:  0.543D+00
 Coeff:     -0.179D-02 0.263D-02 0.142D-01 0.414D-01 0.161D+00 0.240D+00
 Coeff:      0.543D+00
 Gap=     0.194 Goal=   None    Shift=    0.000
 RMSDP=1.46D-05 MaxDP=1.75D-03 DE=-1.67D-05 OVMax= 2.22D-04

 Cycle   8  Pass 1  IDiag  1:
 E= -880.920543177336     Delta-E=       -0.000000707677 Rises=F Damp=F
 DIIS: error= 1.43D-05 at cycle   8 NSaved=   8.
 NSaved= 8 IEnMin= 8 EnMin= -880.920543177336     IErMin= 8 ErrMin= 1.43D-05
 ErrMax= 1.43D-05  0.00D+00 EMaxC= 1.00D-01 BMatC= 2.17D-07 BMatP= 1.13D-06
 IDIUse=1 WtCom= 1.00D+00 WtEn= 0.00D+00
 Coeff-Com: -0.299D-04-0.216D-03 0.472D-04 0.280D-02 0.188D-01 0.464D-01
 Coeff-Com:  0.321D+00 0.611D+00
 Coeff:     -0.299D-04-0.216D-03 0.472D-04 0.280D-02 0.188D-01 0.464D-01
 Coeff:      0.321D+00 0.611D+00
 Gap=     0.194 Goal=   None    Shift=    0.000
 RMSDP=1.01D-05 MaxDP=1.74D-03 DE=-7.08D-07 OVMax= 8.90D-05

 Cycle   9  Pass 1  IDiag  1:
 E= -880.920543314700     Delta-E=       -0.000000137365 Rises=F Damp=F
 DIIS: error= 5.09D-06 at cycle   9 NSaved=   9.
 NSaved= 9 IEnMin= 9 EnMin= -880.920543314700     IErMin= 9 ErrMin= 5.09D-06
 ErrMax= 5.09D-06  0.00D+00 EMaxC= 1.00D-01 BMatC= 3.58D-08 BMatP= 2.17D-07
 IDIUse=1 WtCom= 1.00D+00 WtEn= 0.00D+00
 Coeff-Com:  0.899D-04-0.281D-03-0.943D-03-0.119D-02-0.762D-03 0.815D-02
 Coeff-Com:  0.147D+00 0.376D+00 0.472D+00
 Coeff:      0.899D-04-0.281D-03-0.943D-03-0.119D-02-0.762D-03 0.815D-02
 Coeff:      0.147D+00 0.376D+00 0.472D+00
 Gap=     0.194 Goal=   None    Shift=    0.000
 RMSDP=1.94D-06 MaxDP=2.89D-04 DE=-1.37D-07 OVMax= 3.24D-05

 Cycle  10  Pass 1  IDiag  1:
 E= -880.920543340799     Delta-E=       -0.000000026099 Rises=F Damp=F
 DIIS: error= 1.04D-06 at cycle  10 NSaved=  10.
 NSaved=10 IEnMin=10 EnMin= -880.920543340799     IErMin=10 ErrMin= 1.04D-06
 ErrMax= 1.04D-06  0.00D+00 EMaxC= 1.00D-01 BMatC= 9.78D-10 BMatP= 3.58D-08
 IDIUse=1 WtCom= 1.00D+00 WtEn= 0.00D+00
 Coeff-Com:  0.452D-04-0.980D-04-0.473D-03-0.946D-03-0.305D-02-0.260D-02
 Coeff-Com:  0.245D-01 0.846D-01 0.181D+00 0.717D+00
 Coeff:      0.452D-04-0.980D-04-0.473D-03-0.946D-03-0.305D-02-0.260D-02
 Coeff:      0.245D-01 0.846D-01 0.181D+00 0.717D+00
 Gap=     0.194 Goal=   None    Shift=    0.000
 RMSDP=5.82D-07 MaxDP=1.13D-04 DE=-2.61D-08 OVMax= 5.54D-06

 Cycle  11  Pass 1  IDiag  1:
 E= -880.920543341558     Delta-E=       -0.000000000759 Rises=F Damp=F
 DIIS: error= 3.18D-07 at cycle  11 NSaved=  11.
 NSaved=11 IEnMin=11 EnMin= -880.920543341558     IErMin=11 ErrMin= 3.18D-07
 ErrMax= 3.18D-07  0.00D+00 EMaxC= 1.00D-01 BMatC= 7.81D-11 BMatP= 9.78D-10
 IDIUse=1 WtCom= 1.00D+00 WtEn= 0.00D+00
 Coeff-Com:  0.144D-04-0.285D-04-0.162D-03-0.349D-03-0.126D-02-0.146D-02
 Coeff-Com:  0.386D-02 0.183D-01 0.540D-01 0.310D+00 0.617D+00
 Coeff:      0.144D-04-0.285D-04-0.162D-03-0.349D-03-0.126D-02-0.146D-02
 Coeff:      0.386D-02 0.183D-01 0.540D-01 0.310D+00 0.617D+00
 Gap=     0.194 Goal=   None    Shift=    0.000
 RMSDP=1.29D-07 MaxDP=1.54D-05 DE=-7.59D-10 OVMax= 1.56D-06

 Cycle  12  Pass 1  IDiag  1:
 E= -880.920543341649     Delta-E=       -0.000000000090 Rises=F Damp=F
 DIIS: error= 1.20D-07 at cycle  12 NSaved=  12.
 NSaved=12 IEnMin=12 EnMin= -880.920543341649     IErMin=12 ErrMin= 1.20D-07
 ErrMax= 1.20D-07  0.00D+00 EMaxC= 1.00D-01 BMatC= 1.21D-11 BMatP= 7.81D-11
 IDIUse=1 WtCom= 1.00D+00 WtEn= 0.00D+00
 Coeff-Com:  0.653D-06-0.196D-07-0.173D-04-0.451D-04-0.209D-03-0.366D-03
 Coeff-Com: -0.137D-02-0.271D-02 0.278D-02 0.603D-01 0.313D+00 0.628D+00
 Coeff:      0.653D-06-0.196D-07-0.173D-04-0.451D-04-0.209D-03-0.366D-03
 Coeff:     -0.137D-02-0.271D-02 0.278D-02 0.603D-01 0.313D+00 0.628D+00
 Gap=     0.194 Goal=   None    Shift=    0.000
 RMSDP=5.85D-08 MaxDP=9.34D-06 DE=-9.05D-11 OVMax= 7.81D-07

 Cycle  13  Pass 1  IDiag  1:
 E= -880.920543341654     Delta-E=       -0.000000000005 Rises=F Damp=F
 DIIS: error= 3.34D-08 at cycle  13 NSaved=  13.
 NSaved=13 IEnMin=13 EnMin= -880.920543341654     IErMin=13 ErrMin= 3.34D-08
 ErrMax= 3.34D-08  0.00D+00 EMaxC= 1.00D-01 BMatC= 8.33D-13 BMatP= 1.21D-11
 IDIUse=1 WtCom= 1.00D+00 WtEn= 0.00D+00
 Coeff-Com: -0.546D-06 0.166D-05 0.181D-05 0.310D-06-0.137D-04-0.702D-04
 Coeff-Com: -0.854D-03-0.242D-02-0.188D-02 0.664D-02 0.104D+00 0.292D+00
 Coeff-Com:  0.602D+00
 Coeff:     -0.546D-06 0.166D-05 0.181D-05 0.310D-06-0.137D-04-0.702D-04
 Coeff:     -0.854D-03-0.242D-02-0.188D-02 0.664D-02 0.104D+00 0.292D+00
 Coeff:      0.602D+00
 Gap=     0.194 Goal=   None    Shift=    0.000
 RMSDP=2.09D-08 MaxDP=4.47D-06 DE=-5.46D-12 OVMax= 1.48D-07

 Cycle  14  Pass 1  IDiag  1:
 E= -880.920543341654     Delta-E=        0.000000000000 Rises=F Damp=F
 DIIS: error= 9.99D-09 at cycle  14 NSaved=  14.
 NSaved=14 IEnMin=13 EnMin= -880.920543341654     IErMin=14 ErrMin= 9.99D-09
 ErrMax= 9.99D-09  0.00D+00 EMaxC= 1.00D-01 BMatC= 1.02D-13 BMatP= 8.33D-13
 IDIUse=1 WtCom= 1.00D+00 WtEn= 0.00D+00
 Coeff-Com: -0.319D-06 0.790D-06 0.266D-05 0.452D-05 0.151D-04 0.406D-05
 Coeff-Com: -0.289D-03-0.943D-03-0.120D-02-0.390D-02 0.166D-01 0.759D-01
 Coeff-Com:  0.303D+00 0.611D+00
 Coeff:     -0.319D-06 0.790D-06 0.266D-05 0.452D-05 0.151D-04 0.406D-05
 Coeff:     -0.289D-03-0.943D-03-0.120D-02-0.390D-02 0.166D-01 0.759D-01
 Coeff:      0.303D+00 0.611D+00
 Gap=     0.194 Goal=   None    Shift=    0.000
 RMSDP=1.08D-08 MaxDP=2.27D-06 DE= 4.55D-13 OVMax= 5.57D-08

 Cycle  15  Pass 1  IDiag  1:
 E= -880.920543341654     Delta-E=        0.000000000000 Rises=F Damp=F
 DIIS: error= 1.54D-09 at cycle  15 NSaved=  15.
 NSaved=15 IEnMin=13 EnMin= -880.920543341654     IErMin=15 ErrMin= 1.54D-09
 ErrMax= 1.54D-09  0.00D+00 EMaxC= 1.00D-01 BMatC= 3.61D-15 BMatP= 1.02D-13
 IDIUse=1 WtCom= 1.00D+00 WtEn= 0.00D+00
 Coeff-Com: -0.700D-07 0.155D-06 0.792D-06 0.151D-05 0.609D-05 0.632D-05
 Coeff-Com: -0.389D-04-0.142D-03-0.240D-03-0.177D-02-0.132D-02 0.494D-02
 Coeff-Com:  0.574D-01 0.213D+00 0.728D+00
 Coeff:     -0.700D-07 0.155D-06 0.792D-06 0.151D-05 0.609D-05 0.632D-05
 Coeff:     -0.389D-04-0.142D-03-0.240D-03-0.177D-02-0.132D-02 0.494D-02
 Coeff:      0.574D-01 0.213D+00 0.728D+00
 Gap=     0.194 Goal=   None    Shift=    0.000
 RMSDP=1.46D-08 MaxDP=2.72D-06 DE= 0.00D+00 OVMax= 1.98D-08

 Cycle  16  Pass 1  IDiag  1:
 E= -880.920543341629     Delta-E=        0.000000000025 Rises=F Damp=F
 DIIS: error= 7.31D-10 at cycle  16 NSaved=  16.
 NSaved=16 IEnMin=13 EnMin= -880.920543341654     IErMin=16 ErrMin= 7.31D-10
 ErrMax= 7.31D-10  0.00D+00 EMaxC= 1.00D-01 BMatC= 4.88D-16 BMatP= 3.61D-15
 IDIUse=1 WtCom= 1.00D+00 WtEn= 0.00D+00
 Large coefficients: NSaved= 16 BigCof=    0.00 CofMax=   10.00 Det=-3.19D-15
 Inversion failed.  Reducing to 15 matrices.
 Coeff-Com: -0.251D-08 0.105D-06 0.199D-06 0.120D-05 0.208D-05 0.179D-05
 Coeff-Com: -0.362D-07-0.199D-04-0.527D-03-0.158D-02-0.250D-02 0.852D-02
 Coeff-Com:  0.629D-01 0.344D+00 0.589D+00
 Coeff:     -0.251D-08 0.105D-06 0.199D-06 0.120D-05 0.208D-05 0.179D-05
 Coeff:     -0.362D-07-0.199D-04-0.527D-03-0.158D-02-0.250D-02 0.852D-02
 Coeff:      0.629D-01 0.344D+00 0.589D+00
 Gap=     0.194 Goal=   None    Shift=    0.000
 RMSDP=1.85D-08 MaxDP=3.25D-06 DE= 2.46D-11 OVMax= 5.55D-09

 Cycle  17  Pass 1  IDiag  1:
 E= -880.920543341646     Delta-E=       -0.000000000017 Rises=F Damp=F
 DIIS: error= 2.92D-10 at cycle  17 NSaved=  16.
 NSaved=16 IEnMin=12 EnMin= -880.920543341654     IErMin=16 ErrMin= 2.92D-10
 ErrMax= 2.92D-10  0.00D+00 EMaxC= 1.00D-01 BMatC= 8.18D-17 BMatP= 4.88D-16
 IDIUse=1 WtCom= 1.00D+00 WtEn= 0.00D+00
 Large coefficients: NSaved= 16 BigCof=    0.00 CofMax=   10.00 Det=-7.19D-16
 Inversion failed.  Reducing to 15 matrices.
 Coeff-Com:  0.262D-07 0.600D-07 0.220D-06 0.565D-06 0.372D-05 0.101D-04
 Coeff-Com:  0.587D-05-0.739D-04-0.574D-03-0.172D-02-0.316D-02 0.193D-02
 Coeff-Com:  0.729D-01 0.316D+00 0.615D+00
 Coeff:      0.262D-07 0.600D-07 0.220D-06 0.565D-06 0.372D-05 0.101D-04
 Coeff:      0.587D-05-0.739D-04-0.574D-03-0.172D-02-0.316D-02 0.193D-02
 Coeff:      0.729D-01 0.316D+00 0.615D+00
 Gap=     0.194 Goal=   None    Shift=    0.000
 RMSDP=8.39D-09 MaxDP=1.62D-06 DE=-1.73D-11 OVMax= 1.92D-09

 Cycle  18  Pass 1  IDiag  1:
 E= -880.920543341674     Delta-E=       -0.000000000028 Rises=F Damp=F
 DIIS: error= 3.29D-10 at cycle  18 NSaved=  16.
 NSaved=16 IEnMin=16 EnMin= -880.920543341674     IErMin=15 ErrMin= 2.92D-10
 ErrMax= 3.29D-10  0.00D+00 EMaxC= 1.00D-01 BMatC= 8.89D-18 BMatP= 8.18D-17
 IDIUse=1 WtCom= 1.00D+00 WtEn= 0.00D+00
 Large coefficients: NSaved= 16 BigCof=    0.00 CofMax=   10.00 Det=-6.27D-17
 Inversion failed.  Reducing to 15 matrices.
 Coeff-Com:  0.469D-08-0.294D-07 0.803D-07 0.213D-05 0.628D-05 0.786D-05
 Coeff-Com:  0.179D-04-0.142D-03-0.668D-03-0.237D-02-0.394D-02 0.138D-01
 Coeff-Com:  0.131D+00 0.332D+00 0.530D+00
 Coeff:      0.469D-08-0.294D-07 0.803D-07 0.213D-05 0.628D-05 0.786D-05
 Coeff:      0.179D-04-0.142D-03-0.668D-03-0.237D-02-0.394D-02 0.138D-01
 Coeff:      0.131D+00 0.332D+00 0.530D+00
 Gap=     0.194 Goal=   None    Shift=    0.000
 RMSDP=1.84D-08 MaxDP=3.43D-06 DE=-2.77D-11 OVMax= 5.25D-10

 Cycle  19  Pass 1  IDiag  1:
 E= -880.920543341633     Delta-E=        0.000000000041 Rises=F Damp=F
 DIIS: error= 3.39D-10 at cycle  19 NSaved=  16.
 NSaved=16 IEnMin=15 EnMin= -880.920543341674     IErMin=14 ErrMin= 2.92D-10
 ErrMax= 3.39D-10  0.00D+00 EMaxC= 1.00D-01 BMatC= 4.35D-18 BMatP= 8.89D-18
 IDIUse=1 WtCom= 1.00D+00 WtEn= 0.00D+00
 Large coefficients: NSaved= 16 BigCof=    0.00 CofMax=   10.00 Det=-1.94D-17
 Inversion failed.  Reducing to 15 matrices.
 Coeff-Com: -0.304D-07 0.193D-08 0.732D-06 0.214D-05 0.250D-05 0.570D-05
 Coeff-Com: -0.669D-04-0.309D-03-0.121D-02-0.250D-02 0.243D-02 0.531D-01
 Coeff-Com:  0.162D+00 0.388D+00 0.398D+00
 Coeff:     -0.304D-07 0.193D-08 0.732D-06 0.214D-05 0.250D-05 0.570D-05
 Coeff:     -0.669D-04-0.309D-03-0.121D-02-0.250D-02 0.243D-02 0.531D-01
 Coeff:      0.162D+00 0.388D+00 0.398D+00
 Gap=     0.194 Goal=   None    Shift=    0.000
 RMSDP=1.05D-08 MaxDP=1.67D-06 DE= 4.09D-11 OVMax= 2.49D-10

 Cycle  20  Pass 1  IDiag  1:
 E= -880.920543341631     Delta-E=        0.000000000002 Rises=F Damp=F
 DIIS: error= 1.24D-10 at cycle  20 NSaved=  16.
 NSaved=16 IEnMin=14 EnMin= -880.920543341674     IErMin=16 ErrMin= 1.24D-10
 ErrMax= 1.24D-10  0.00D+00 EMaxC= 1.00D-01 BMatC= 6.90D-19 BMatP= 4.35D-18
 IDIUse=1 WtCom= 1.00D+00 WtEn= 0.00D+00
 Large coefficients: NSaved= 16 BigCof=    0.00 CofMax=   10.00 Det=-2.75D-18
 Inversion failed.  Reducing to 15 matrices.
 Coeff-Com:  0.303D-07 0.429D-06 0.104D-05 0.106D-05 0.326D-07-0.321D-04
 Coeff-Com: -0.134D-03-0.518D-03-0.110D-02 0.705D-03 0.225D-01 0.773D-01
 Coeff-Com:  0.233D+00 0.168D+00 0.500D+00
 Coeff:      0.303D-07 0.429D-06 0.104D-05 0.106D-05 0.326D-07-0.321D-04
 Coeff:     -0.134D-03-0.518D-03-0.110D-02 0.705D-03 0.225D-01 0.773D-01
 Coeff:      0.233D+00 0.168D+00 0.500D+00
 Gap=     0.194 Goal=   None    Shift=    0.000
 RMSDP=2.37D-09 MaxDP=3.57D-07 DE= 2.27D-12 OVMax= 1.43D-10

 SCF Done:  E(RPBE1PBE) =  -880.920543342     A.U. after   20 cycles
            NFock= 20  Conv=0.24D-08     -V/T= 2.0043
 KE= 8.771207115137D+02 PE=-4.918389192948D+03 EE= 1.722436696200D+03
 Leave Link  502 at Tue Oct 24 14:15:54 2017, MaxMem=  8053063680 cpu:      1087.7
 (Enter /share/apps//g09/l601.exe)
 Copying SCF densities to generalized density rwf, IOpCl= 0 IROHF=0.

 **********************************************************************

            Population analysis using the SCF density.

 **********************************************************************

 Orbital symmetries:
       Occupied  (A) (A) (A) (A) (A) (A) (A) (A) (A) (A) (A) (A)
                 (A) (A) (A) (A) (A) (A) (A) (A) (A) (A) (A) (A)
                 (A) (A) (A) (A) (A) (A) (A) (A) (A) (A) (A) (A)
                 (A) (A) (A) (A) (A) (A) (A) (A) (A) (A) (A) (A)
                 (A) (A) (A) (A) (A) (A) (A) (A) (A) (A) (A) (A)
                 (A) (A) (A) (A) (A) (A)
       Virtual   (A) (A) (A) (A) (A) (A) (A) (A) (A) (A) (A) (A)
                 (A) (A) (A) (A) (A) (A) (A) (A) (A) (A) (A) (A)
                 (A) (A) (A) (A) (A) (A) (A) (A) (A) (A) (A) (A)
                 (A) (A) (A) (A) (A) (A) (A) (A) (A) (A) (A) (A)
                 (A) (A) (A) (A) (A) (A) (A) (A) (A) (A) (A) (A)
                 (A) (A) (A) (A) (A) (A) (A) (A) (A) (A) (A) (A)
                 (A) (A) (A) (A) (A) (A) (A) (A) (A) (A) (A) (A)
                 (A) (A) (A) (A) (A) (A) (A) (A) (A) (A) (A) (A)
                 (A) (A) (A) (A) (A) (A) (A) (A) (A) (A) (A) (A)
                 (A) (A) (A) (A) (A) (A) (A) (A) (A) (A) (A) (A)
                 (A) (A) (A) (A) (A) (A) (A) (A) (A) (A) (A) (A)
                 (A) (A) (A) (A) (A) (A) (A) (A) (A) (A) (A) (A)
                 (A) (A) (A) (A) (A) (A) (A) (A) (A) (A) (A) (A)
                 (A) (A) (A) (A) (A) (A) (A) (A) (A) (A) (A) (A)
                 (A) (A) (A) (A) (A) (A) (A) (A) (A) (A) (A) (A)
                 (A) (A) (A) (A) (A) (A) (A) (A) (A) (A) (A) (A)
                 (A) (A) (A) (A) (A) (A) (A) (A) (A) (A) (A) (A)
                 (A) (A) (A) (A) (A) (A) (A) (A) (A) (A) (A) (A)
                 (A) (A) (A) (A) (A) (A) (A) (A) (A) (A) (A) (A)
                 (A) (A) (A) (A) (A) (A) (A) (A) (A) (A) (A) (A)
                 (A) (A) (A) (A) (A) (A) (A) (A) (A) (A) (A) (A)
                 (A) (A) (A) (A) (A) (A) (A) (A) (A) (A) (A) (A)
                 (A) (A) (A) (A) (A) (A) (A) (A) (A) (A) (A) (A)
                 (A) (A) (A) (A) (A) (A) (A) (A) (A) (A) (A) (A)
                 (A) (A) (A) (A) (A) (A) (A) (A) (A) (A) (A) (A)
                 (A) (A) (A) (A) (A) (A) (A) (A) (A) (A) (A) (A)
                 (A) (A) (A) (A) (A) (A) (A) (A) (A) (A) (A) (A)
                 (A) (A) (A) (A) (A) (A) (A) (A) (A) (A) (A) (A)
                 (A) (A) (A) (A) (A) (A) (A) (A) (A) (A) (A) (A)
                 (A) (A) (A) (A) (A) (A) (A) (A) (A) (A) (A) (A)
                 (A) (A) (A) (A) (A) (A) (A) (A) (A) (A) (A) (A)
                 (A) (A) (A) (A) (A) (A) (A) (A) (A) (A) (A) (A)
                 (A) (A) (A) (A) (A) (A) (A) (A) (A) (A) (A) (A)
                 (A) (A) (A) (A) (A) (A) (A) (A) (A) (A) (A) (A)
                 (A) (A) (A) (A) (A) (A) (A) (A) (A) (A) (A) (A)
                 (A) (A)
 The electronic state is 1-A.
 Alpha  occ. eigenvalues --  -19.45334 -19.44025 -19.40862 -19.36874 -19.36214
 Alpha  occ. eigenvalues --  -19.32876 -10.57231 -10.51430 -10.47252 -10.44926
 Alpha  occ. eigenvalues --  -10.44889 -10.44462 -10.40896 -10.39941 -10.39161
 Alpha  occ. eigenvalues --  -10.39043 -10.36956  -1.35142  -1.28191  -1.26209
 Alpha  occ. eigenvalues --   -1.22554  -1.21139  -1.18500  -1.01408  -0.97844
 Alpha  occ. eigenvalues --   -0.95109  -0.88969  -0.88076  -0.85722  -0.83097
 Alpha  occ. eigenvalues --   -0.81520  -0.78703  -0.77003  -0.76408  -0.72570
 Alpha  occ. eigenvalues --   -0.71191  -0.68265  -0.67424  -0.66742  -0.66252
 Alpha  occ. eigenvalues --   -0.64152  -0.63395  -0.62895  -0.61705  -0.61070
 Alpha  occ. eigenvalues --   -0.60729  -0.59586  -0.58421  -0.58099  -0.57682
 Alpha  occ. eigenvalues --   -0.57099  -0.56367  -0.55923  -0.54637  -0.54273
 Alpha  occ. eigenvalues --   -0.53467  -0.51940  -0.50493  -0.50072  -0.48845
 Alpha  occ. eigenvalues --   -0.48092  -0.47320  -0.45139  -0.43396  -0.42339
 Alpha  occ. eigenvalues --   -0.39494
 Alpha virt. eigenvalues --   -0.20135  -0.13240  -0.12265  -0.10230  -0.09543
 Alpha virt. eigenvalues --   -0.08781  -0.08124  -0.07554  -0.07249  -0.06534
 Alpha virt. eigenvalues --   -0.06420  -0.06143  -0.05948  -0.05158  -0.04761
 Alpha virt. eigenvalues --   -0.03904  -0.03635  -0.02958  -0.02870  -0.02533
 Alpha virt. eigenvalues --   -0.01985  -0.01768  -0.01335  -0.00921  -0.00571
 Alpha virt. eigenvalues --   -0.00135  -0.00077   0.00179   0.00752   0.00917
 Alpha virt. eigenvalues --    0.01649   0.02405   0.02566   0.02963   0.03021
 Alpha virt. eigenvalues --    0.03915   0.04215   0.04572   0.04902   0.05278
 Alpha virt. eigenvalues --    0.05666   0.06040   0.06255   0.06903   0.07103
 Alpha virt. eigenvalues --    0.07437   0.07846   0.08116   0.08196   0.08958
 Alpha virt. eigenvalues --    0.09056   0.09444   0.09610   0.10352   0.10474
 Alpha virt. eigenvalues --    0.10852   0.10930   0.11470   0.11825   0.12154
 Alpha virt. eigenvalues --    0.12378   0.12904   0.13570   0.13790   0.14258
 Alpha virt. eigenvalues --    0.14560   0.15198   0.15484   0.16115   0.16363
 Alpha virt. eigenvalues --    0.16993   0.17310   0.17587   0.18214   0.18562
 Alpha virt. eigenvalues --    0.19064   0.19290   0.19947   0.20502   0.20569
 Alpha virt. eigenvalues --    0.21519   0.21669   0.22160   0.22388   0.22861
 Alpha virt. eigenvalues --    0.23505   0.24221   0.24286   0.25021   0.26185
 Alpha virt. eigenvalues --    0.26382   0.27187   0.27511   0.28120   0.28439
 Alpha virt. eigenvalues --    0.29161   0.29335   0.29861   0.30080   0.31070
 Alpha virt. eigenvalues --    0.31640   0.32182   0.33877   0.34348   0.34737
 Alpha virt. eigenvalues --    0.35431   0.35829   0.36290   0.36704   0.37348
 Alpha virt. eigenvalues --    0.38175   0.38378   0.39944   0.40582   0.41940
 Alpha virt. eigenvalues --    0.43535   0.43781   0.44423   0.45399   0.45937
 Alpha virt. eigenvalues --    0.46252   0.47216   0.47401   0.48289   0.48775
 Alpha virt. eigenvalues --    0.50255   0.50548   0.51199   0.51696   0.53157
 Alpha virt. eigenvalues --    0.53648   0.54881   0.55299   0.55810   0.56564
 Alpha virt. eigenvalues --    0.57005   0.57234   0.57991   0.58480   0.59054
 Alpha virt. eigenvalues --    0.59372   0.60605   0.60871   0.60916   0.61635
 Alpha virt. eigenvalues --    0.61956   0.62649   0.63337   0.63932   0.65056
 Alpha virt. eigenvalues --    0.65521   0.65574   0.67095   0.68304   0.69518
 Alpha virt. eigenvalues --    0.70466   0.72707   0.76276   0.79304   0.80181
 Alpha virt. eigenvalues --    0.80597   0.83632   0.86020   0.87336   0.88434
 Alpha virt. eigenvalues --    0.89460   0.91046   0.92529   0.93944   0.95421
 Alpha virt. eigenvalues --    0.96413   0.97623   0.97830   0.99780   1.01752
 Alpha virt. eigenvalues --    1.03560   1.04099   1.04839   1.06998   1.07835
 Alpha virt. eigenvalues --    1.09516   1.10251   1.10920   1.13061   1.13305
 Alpha virt. eigenvalues --    1.15180   1.15655   1.16456   1.18276   1.19559
 Alpha virt. eigenvalues --    1.20832   1.21486   1.22287   1.24005   1.24956
 Alpha virt. eigenvalues --    1.25344   1.26226   1.28057   1.29754   1.30078
 Alpha virt. eigenvalues --    1.31885   1.32184   1.32709   1.33123   1.33787
 Alpha virt. eigenvalues --    1.34660   1.35570   1.36412   1.39199   1.40754
 Alpha virt. eigenvalues --    1.41355   1.41667   1.43081   1.44618   1.44945
 Alpha virt. eigenvalues --    1.45137   1.45548   1.46225   1.46839   1.46931
 Alpha virt. eigenvalues --    1.47306   1.48356   1.49665   1.50385   1.50602
 Alpha virt. eigenvalues --    1.51082   1.51868   1.53422   1.54510   1.55516
 Alpha virt. eigenvalues --    1.56089   1.56660   1.57136   1.58319   1.58429
 Alpha virt. eigenvalues --    1.58561   1.60250   1.60823   1.61347   1.62224
 Alpha virt. eigenvalues --    1.63262   1.65234   1.66276   1.67375   1.68398
 Alpha virt. eigenvalues --    1.69712   1.71091   1.72736   1.74008   1.74498
 Alpha virt. eigenvalues --    1.74595   1.76264   1.78509   1.81105   1.81461
 Alpha virt. eigenvalues --    1.82996   1.84201   1.85119   1.86550   1.87628
 Alpha virt. eigenvalues --    1.88511   1.90586   1.92150   1.93477   1.94385
 Alpha virt. eigenvalues --    1.96002   1.98720   2.00034   2.01982   2.02290
 Alpha virt. eigenvalues --    2.03300   2.04683   2.05789   2.07640   2.07724
 Alpha virt. eigenvalues --    2.08666   2.09755   2.11289   2.12085   2.12598
 Alpha virt. eigenvalues --    2.13822   2.16452   2.17306   2.21025   2.21364
 Alpha virt. eigenvalues --    2.23720   2.31877   2.32609   2.33304   2.33717
 Alpha virt. eigenvalues --    2.33903   2.37710   2.38415   2.39373   2.39945
 Alpha virt. eigenvalues --    2.40466   2.41464   2.41511   2.42845   2.42996
 Alpha virt. eigenvalues --    2.43755   2.44170   2.44749   2.45928   2.46724
 Alpha virt. eigenvalues --    2.47386   2.48468   2.48993   2.50756   2.52668
 Alpha virt. eigenvalues --    2.54625   2.56515   2.57309   2.59988   2.62170
 Alpha virt. eigenvalues --    2.63042   2.67072   2.68331   2.69889   2.70306
 Alpha virt. eigenvalues --    2.73043   2.73153   2.74917   2.76373   2.78249
 Alpha virt. eigenvalues --    2.79467   2.80845   2.82090   2.82687   2.87337
 Alpha virt. eigenvalues --    2.89063   2.89881   2.90942   2.91920   2.93187
 Alpha virt. eigenvalues --    2.94565   2.95645   2.97388   2.98078   2.99717
 Alpha virt. eigenvalues --    3.01006   3.02303   3.04460   3.05161   3.07472
 Alpha virt. eigenvalues --    3.07679   3.08294   3.09537   3.10518   3.11653
 Alpha virt. eigenvalues --    3.13515   3.14692   3.16509   3.18034   3.21622
 Alpha virt. eigenvalues --    3.22008   3.26738   3.31391   3.37782   3.39226
 Alpha virt. eigenvalues --    3.48129   3.59064   3.65541   3.67655   3.68512
 Alpha virt. eigenvalues --    3.68636   3.69149   3.69995   3.70300   3.71842
 Alpha virt. eigenvalues --    3.74056   3.76608   3.81241   3.85719   3.90274
 Alpha virt. eigenvalues --    3.92612   3.94580   3.94861   3.96968   3.99950
 Alpha virt. eigenvalues --    4.01895   4.06489   4.08855   4.09137   4.12074
 Alpha virt. eigenvalues --    4.19235   4.24353   4.95167   4.97904   5.03555
 Alpha virt. eigenvalues --    5.04201   5.05259   5.06774   5.12997   5.21723
 Alpha virt. eigenvalues --    5.28587   5.30969   5.31618   5.33479   5.47246
 Alpha virt. eigenvalues --    5.56603   5.60824   5.61644   5.62417   5.80731
 Alpha virt. eigenvalues --   23.68640  23.71839  23.75166  23.77272  23.81044
 Alpha virt. eigenvalues --   23.82330  23.88185  23.88778  23.89254  23.90070
 Alpha virt. eigenvalues --   23.90567  49.89625  49.90425  49.93709  49.94967
 Alpha virt. eigenvalues --   49.97377  50.01253
          Condensed to atoms (all electrons):
               1          2          3          4          5          6
     1  C    9.258522  -2.111017  -0.307207  -1.262686   0.111416   0.524959
     2  C   -2.111017  20.596930 -13.916348   3.161989  -1.548552   0.816162
     3  C   -0.307207 -13.916348  28.775223 -13.826542   7.644846  -5.603181
     4  C   -1.262686   3.161989 -13.826542  29.687222 -16.327266   7.093078
     5  C    0.111416  -1.548552   7.644846 -16.327266  24.969085 -10.542298
     6  C    0.524959   0.816162  -5.603181   7.093078 -10.542298  15.265812
     7  O   -0.152685   0.060017   0.176108  -0.031303   0.054430   0.094746
     8  O    0.030751   0.093258   0.120941  -0.379474   0.184330  -0.035796
     9  O    0.074034  -0.064873   0.035685  -0.058816  -0.234619   0.330207
    10  O    0.251957  -0.098632   0.099199  -0.000751   0.010069  -0.017480
    11  H    0.421763  -0.070976   0.032274  -0.008725  -0.013449  -0.002413
    12  H    0.265734   0.018004   0.024034   0.028289   0.003812  -0.003313
    13  H    0.018193   0.189982   0.148585  -0.062916   0.021240  -0.015590
    14  H   -0.026600  -0.070410   0.422725   0.052064  -0.013304  -0.007544
    15  H    0.017212   0.006704   0.059253   0.106241   0.131783  -0.003150
    16  H    0.008766  -0.003624   0.023649   0.061217   0.206235   0.046053
    17  H   -0.024668  -0.065361   0.080196  -0.013561   0.102228   0.268980
    18  O    0.059611   0.045597  -0.002828  -0.127921   0.078793   0.050821
    19  C   -0.265977   0.251165  -0.226520   0.008060  -0.006232   0.001102
    20  H    0.003783   0.006736   0.002584  -0.000654   0.000230  -0.001030
    21  H    0.045055  -0.028103  -0.031484  -0.002855   0.004781   0.001721
    22  H   -0.037676   0.021035   0.016326   0.002039  -0.001002   0.000285
    23  C    0.030757   0.049720  -0.067968  -0.159690  -0.139114   0.094915
    24  H   -0.001583  -0.002808   0.010415  -0.036469   0.011300   0.002754
    25  H    0.000166  -0.001274  -0.001816   0.058171  -0.063920   0.008224
    26  H    0.000019   0.001967  -0.002252  -0.002567   0.033291   0.000114
    27  C   -0.030363  -0.397464   0.439593  -0.202824  -0.136360   0.014831
    28  H    0.003120   0.018577   0.040804  -0.027258  -0.043519   0.003675
    29  H    0.000175  -0.005241   0.008690  -0.056972   0.054119  -0.003468
    30  H    0.000106   0.001601  -0.001132   0.030675   0.000335  -0.002528
    31  C   -0.263483  -0.510769   1.267831  -1.084172   1.302527  -1.376255
    32  O    0.048394   0.127799  -0.069285  -0.035109  -0.256124   0.381255
    33  C   -0.194233  -0.562193   0.924149  -0.182755   0.495080  -0.965644
    34  H   -0.001315  -0.009280  -0.001526   0.008975  -0.003231   0.001412
    35  H    0.002156   0.001645  -0.005103   0.001448  -0.005291   0.005566
    36  H    0.000182   0.000178   0.001741  -0.005192   0.007421  -0.005068
               7          8          9         10         11         12
     1  C   -0.152685   0.030751   0.074034   0.251957   0.421763   0.265734
     2  C    0.060017   0.093258  -0.064873  -0.098632  -0.070976   0.018004
     3  C    0.176108   0.120941   0.035685   0.099199   0.032274   0.024034
     4  C   -0.031303  -0.379474  -0.058816  -0.000751  -0.008725   0.028289
     5  C    0.054430   0.184330  -0.234619   0.010069  -0.013449   0.003812
     6  C    0.094746  -0.035796   0.330207  -0.017480  -0.002413  -0.003313
     7  O    7.716400  -0.004728   0.017426   0.026869  -0.008019   0.013328
     8  O   -0.004728   7.960776   0.081881   0.000097  -0.000209  -0.000030
     9  O    0.017426   0.081881   7.932338  -0.002504   0.019947  -0.009115
    10  O    0.026869   0.000097  -0.002504   7.876358  -0.043157  -0.038666
    11  H   -0.008019  -0.000209   0.019947  -0.043157   0.470994  -0.022618
    12  H    0.013328  -0.000030  -0.009115  -0.038666  -0.022618   0.526823
    13  H   -0.027946  -0.002466   0.012623  -0.007085   0.004693  -0.006956
    14  H    0.007425  -0.014074  -0.070441  -0.000437  -0.000490   0.006131
    15  H   -0.000312  -0.010048   0.011355   0.000091  -0.000013  -0.000169
    16  H    0.005558   0.009713   0.005270  -0.000012   0.000018  -0.000006
    17  H   -0.071171  -0.002176  -0.006564   0.000070  -0.000011   0.000051
    18  O    0.012123   0.015788   0.001368  -0.000278  -0.000094  -0.000111
    19  C   -0.000742   0.000003   0.002408   0.148247   0.005934  -0.004909
    20  H   -0.000294  -0.000000   0.000006  -0.049877  -0.000151  -0.000060
    21  H    0.002762   0.000006  -0.000114  -0.045672  -0.000975  -0.003841
    22  H    0.000238  -0.000001  -0.000085  -0.040897   0.000749   0.015322
    23  C   -0.008674   0.002925   0.002696  -0.000898  -0.000248  -0.000244
    24  H    0.000471   0.000002  -0.000108   0.000007   0.000002   0.000002
    25  H    0.000284   0.000218   0.000048   0.000001   0.000000   0.000000
    26  H   -0.000424   0.000110   0.000012  -0.000006  -0.000000   0.000000
    27  C    0.006945   0.120661  -0.003421  -0.000152   0.000085   0.001143
    28  H   -0.000066  -0.045654  -0.002452   0.000002   0.000007   0.000005
    29  H   -0.000062  -0.028371   0.000768  -0.000001  -0.000000  -0.000008
    30  H    0.000005  -0.061581  -0.000345   0.000000   0.000000  -0.000001
    31  C    0.028778   0.061357   0.325748   0.000140   0.012323   0.000964
    32  O   -0.048947   0.025631  -0.077346  -0.000991  -0.000953  -0.000466
    33  C    0.008376  -0.167213  -0.543115   0.001842  -0.006732   0.002374
    34  H    0.000315  -0.001715  -0.002489   0.000002  -0.000003   0.000001
    35  H   -0.000031   0.000350  -0.009191  -0.000011   0.000036   0.000012
    36  H   -0.000222   0.000294   0.015200   0.000001  -0.000006  -0.000001
              13         14         15         16         17         18
     1  C    0.018193  -0.026600   0.017212   0.008766  -0.024668   0.059611
     2  C    0.189982  -0.070410   0.006704  -0.003624  -0.065361   0.045597
     3  C    0.148585   0.422725   0.059253   0.023649   0.080196  -0.002828
     4  C   -0.062916   0.052064   0.106241   0.061217  -0.013561  -0.127921
     5  C    0.021240  -0.013304   0.131783   0.206235   0.102228   0.078793
     6  C   -0.015590  -0.007544  -0.003150   0.046053   0.268980   0.050821
     7  O   -0.027946   0.007425  -0.000312   0.005558  -0.071171   0.012123
     8  O   -0.002466  -0.014074  -0.010048   0.009713  -0.002176   0.015788
     9  O    0.012623  -0.070441   0.011355   0.005270  -0.006564   0.001368
    10  O   -0.007085  -0.000437   0.000091  -0.000012   0.000070  -0.000278
    11  H    0.004693  -0.000490  -0.000013   0.000018  -0.000011  -0.000094
    12  H   -0.006956   0.006131  -0.000169  -0.000006   0.000051  -0.000111
    13  H    0.446876  -0.000165   0.001673  -0.000231   0.000450  -0.008639
    14  H   -0.000165   0.422391  -0.007371  -0.000009   0.000094  -0.001173
    15  H    0.001673  -0.007371   0.441132   0.000153  -0.000280   0.003366
    16  H   -0.000231  -0.000009   0.000153   0.445404  -0.006609  -0.021317
    17  H    0.000450   0.000094  -0.000280  -0.006609   0.445705  -0.007739
[...]
 0.00015501,-0.00016447,0.00016681,0.00025481,0.00016323,0.00007438,0.0
 0009619,0.00004609,-0.00007598,0.00011329,-0.00102980,-0.00113671,0.00
 032652,-0.00036898,0.00016032,0.00016149,0.00008862,-0.00001545,-0.000
 17441,0.00001058,0.00012181,-0.00193119,0.00233439,0.00266008,-0.00002
 486,-0.00160430,-0.00117465,-0.00011342,-0.00099032,-0.00069143,0.0002
 4913,-0.00004780,-0.00042445,0.13891295,0.23799164,0.60456035,-0.00106
 086,-0.00038016,0.00035383,0.00328429,0.00516026,0.00642769,-0.0042032
 9,0.00085950,-0.00006340,0.00333497,0.00285273,0.00128825,-0.02746685,
 0.03289101,0.00056338,-0.05411445,-0.02795117,0.00826073,-0.00764461,0
 .01985270,-0.03776051,-0.00090762,-0.00508536,-0.00072345,0.03380296,-
 0.01639391,-0.01861990,0.00009580,-0.00021422,-0.00058891,0.00012145,0
 .00020603,-0.00000721,-0.00005972,0.00006205,-0.00051474,-0.00099683,-
 0.00177091,-0.00055771,0.00123174,-0.00068107,-0.00011181,0.00057947,0
 .00050070,-0.00045949,0.00016859,-0.00043388,0.00036147,-0.00487934,0.
 00469503,0.00020673,-0.01153358,-0.00198439,0.00414891,0.00006972,-0.0
 0007980,0.00044857,0.00004072,0.00002545,-0.00001812,0.00016847,-0.000
 02785,-0.00004372,-0.00003212,-0.00007000,-0.00008252,-0.00012263,-0.0
 0409576,-0.00287595,0.00089341,0.00015516,-0.00010365,0.00001830,0.000
 25152,0.00042553,-0.00002081,0.00048520,0.00036378,-0.00075202,0.00120
 224,0.00116617,-0.00006863,-0.00011005,-0.00048659,0.00004369,-0.00041
 551,-0.00025917,-0.00014298,-0.00023514,0.00005997,-0.13700145,0.06932
 291,0.01584019,0.21726304,0.00189894,0.00006661,0.00014912,-0.00872084
 ,-0.01125834,-0.01131068,0.01686592,-0.00492699,0.00786060,-0.00213100
 ,-0.00156841,-0.00157624,-0.00047372,-0.00699601,-0.00066659,-0.031143
 62,-0.01482287,-0.03484287,0.02597070,-0.02117817,0.05484670,-0.003272
 13,-0.00058778,-0.00100657,-0.02601641,-0.00868442,-0.06072570,-0.0001
 8475,0.00120583,0.00069891,-0.00064207,-0.00053034,-0.00004592,0.00015
 921,-0.00009562,0.00109040,0.00195718,0.00322751,0.00137193,-0.0017350
 4,0.00129316,0.00044534,-0.00024817,0.00065930,0.00167246,0.00057513,0
 .00030017,0.00003228,0.03463796,-0.02235200,-0.00089938,0.00308339,0.0
 0251127,-0.00053487,-0.00012299,0.00020981,-0.00057166,-0.00008453,-0.
 00000409,-0.00002709,-0.00023356,-0.00001517,0.00000772,0.00006327,0.0
 0009862,0.00015120,-0.00048902,0.00038448,0.00107672,-0.00029100,0.000
 86006,0.00006153,-0.00012618,-0.00000148,-0.00008006,0.00024106,0.0002
 2562,0.00006016,-0.00079321,0.00070472,-0.00068713,0.00021280,0.000147
 03,0.00052521,-0.00033162,-0.00040569,0.00015580,0.00013881,0.00016240
 ,-0.00003860,0.08794552,-0.28003986,-0.16917604,-0.11811360,0.39354557
 ,0.00060586,-0.00043397,0.00109322,-0.00383096,-0.00043022,0.00022201,
 0.01635331,-0.00225937,0.00251261,-0.00221052,-0.00003069,-0.00455548,
 0.00121075,-0.01315531,0.00435312,-0.01248079,0.00208021,-0.07514245,-
 0.02646291,0.02850126,-0.00233132,0.00073799,0.00258824,0.00236957,-0.
 02707041,-0.05890339,-0.05859344,-0.00058480,0.00117955,-0.00059983,-0
 .00037349,-0.00034070,0.00020520,0.00012391,0.00000317,0.00033230,0.00
 000352,0.00084347,-0.00071507,-0.00158233,0.00062877,0.00085000,0.0000
 1560,0.00017838,0.00144508,-0.00094221,-0.00046461,0.00133781,0.015428
 31,-0.01177852,0.00240249,0.00780223,0.00106566,0.00045626,0.00063258,
 -0.00010306,0.00014244,-0.00004424,0.00005931,-0.00007010,-0.00007513,
 -0.00007170,0.00002066,-0.00005652,-0.00001691,0.00001695,-0.00033231,
 0.00141420,0.00144347,-0.00044387,0.00033096,-0.00017548,-0.00015606,-
 0.00013058,-0.00002119,0.00017086,0.00004094,-0.00007765,0.00071084,-0
 .00106636,-0.00138869,0.00003177,0.00055856,0.00066627,-0.00002662,0.0
 0032861,0.00037220,-0.00003319,0.00010621,0.00010486,0.03183201,-0.178
 02478,-0.24347670,-0.00329788,0.24034746,0.36067910,-0.00016180,-0.000
 20411,0.00031726,-0.00148200,0.00030746,-0.00010318,0.00537933,0.00185
 827,-0.00171608,0.00022436,0.00023146,-0.00045019,0.00013891,-0.000618
 37,0.00004390,0.00420330,-0.00106047,-0.00151121,-0.00048092,0.0004071
 0,-0.00072322,-0.00014319,-0.00027404,0.00001796,-0.03114781,0.0120209
 4,-0.01951518,-0.00003385,0.00023940,-0.00017346,-0.00001960,-0.000041
 29,-0.00000504,0.00003722,0.00001608,-0.00000900,0.00006798,0.00040193
 ,-0.00013185,-0.00004131,0.00004626,-0.00005012,-0.00008407,0.00006491
 ,0.00005396,-0.00004130,0.00001486,0.00002354,-0.00017925,0.00002710,0
 .00002464,0.00019540,0.00017174,0.00015262,0.00009099,-0.00000241,0.00
 006434,0.00000115,0.00001303,-0.00001531,0.00001467,-0.00002094,-0.000
 01731,-0.00000967,-0.00001611,-0.00000321,0.00000778,-0.00003274,-0.00
 006199,-0.00001507,-0.00000067,0.00000983,0.00000690,-0.00000175,0.000
 01429,-0.00001000,0.00000523,-0.00000470,0.00014771,0.00030211,-0.0000
 2002,0.00003265,0.00003733,0.00001430,-0.00003197,-0.00004308,0.000012
 07,-0.00003473,-0.00001748,0.00002702,-0.19726163,0.07005145,-0.010642
 65,-0.00585871,0.01631198,0.00319607,0.55071613,-0.00013919,0.00015478
 ,-0.00006137,-0.00237150,-0.00029939,-0.00080243,-0.00080904,0.0055547
 4,-0.00531198,0.00177119,-0.00105455,0.00024404,0.00000227,-0.00158379
 ,0.00057984,-0.00382309,0.00827077,-0.00503814,0.00031420,-0.00045172,
 0.00239031,-0.00035866,0.00086347,0.00046772,-0.00346343,0.01072555,0.
 00062831,0.00015006,-0.00013892,0.00019319,0.00004005,0.00000694,-0.00
 007716,0.00003837,-0.00001083,0.00008596,0.00023338,0.00051360,-0.0000
 2281,0.00001043,0.00009622,-0.00013039,0.00002285,-0.00000119,-0.00040
 503,-0.00007525,-0.00002044,0.00005305,0.00040699,-0.00018985,0.000034
 09,0.00151883,-0.00023321,-0.00032747,-0.00013230,0.00004201,-0.000104
 81,0.00000765,-0.00001598,0.00000183,0.00000623,-0.00000007,0.00000294
 ,0.00001847,0.00001607,0.00001607,-0.00011758,0.00041269,0.00045612,-0
 .00007593,-0.00000211,-0.00004383,-0.00002275,-0.00001707,-0.00004699,
 0.00002768,-0.00002928,-0.00002699,-0.00003066,-0.00046120,-0.00026866
 ,0.00008400,0.00001676,0.00014623,-0.00000532,0.00007067,0.00006057,0.
 00005672,0.00006773,-0.00007110,0.06167912,-0.11795674,0.01259393,0.03
 371943,-0.03102985,-0.01460117,0.03188705,0.53609827,0.00004816,-0.000
 17389,0.00029667,-0.00129645,-0.00142278,-0.00105333,0.00313736,-0.003
 16802,-0.00054469,-0.00110164,0.00038215,-0.00098230,-0.00050202,-0.00
 026116,-0.00030856,-0.00680477,-0.00005741,-0.00234418,0.00176300,-0.0
 0083501,0.00439705,0.00025974,-0.00024159,0.00036514,-0.03996789,0.011
 43358,-0.00885454,-0.00006114,0.00028595,-0.00010043,-0.00003300,-0.00
 001999,0.00002697,-0.00000117,0.00001389,0.00009601,0.00022434,0.00050
 793,-0.00000981,-0.00115652,0.00050151,0.00005494,0.00003257,-0.000048
 58,0.00055078,0.00009658,0.00014723,0.00004657,0.00141311,-0.00078995,
 -0.00008595,-0.00003682,0.00020382,0.00009699,0.00007285,-0.00000329,0
 .00002113,-0.00000244,0.00001103,-0.00001417,-0.00001183,-0.00001883,-
 0.00001936,-0.00001082,-0.00000385,0.00000387,0.00003021,-0.00013534,-
 0.00007781,0.00000544,0.00008951,0.00000685,-0.00000751,0.00000490,0.0
 0001826,0.00001570,0.00003133,0.00001505,0.00020850,0.00018584,0.00002
 463,0.00002553,0.00006487,0.00000636,-0.00000906,0.00004585,-0.0000083
 8,-0.00000777,-0.00000978,-0.00000460,-0.00577615,0.00868204,-0.083148
 50,0.02435463,-0.02680570,0.00789771,0.00770028,0.05006486,0.58636644,
 0.00000742,-0.00004935,0.00004110,0.00028493,-0.00013315,0.00010839,-0
 .00004987,-0.00152482,0.00079143,-0.00070580,0.00096043,-0.00064084,-0
 .00004374,0.00035857,-0.00016890,-0.00041114,-0.00121484,0.00076093,0.
 00006807,-0.00001377,0.00001915,0.00086693,-0.00065569,0.00008630,-0.0
 0309530,-0.00042212,0.00023327,-0.00001653,0.00004405,-0.00004383,-0.0
 0002563,-0.00000057,0.00002173,-0.00000364,0.00000437,-0.00000992,-0.0
 0001198,-0.00000598,-0.00000825,-0.00027272,0.00008504,0.00002525,0.00
 004741,-0.00006037,0.00030080,0.00001127,0.00004424,0.00003286,0.00003
 535,-0.00003547,-0.00000174,-0.00030659,-0.00005147,0.00007240,0.00001
 914,-0.00000238,0.00001777,-0.00000249,0.00000279,-0.00000195,0.000000
 40,-0.00000112,-0.00000237,-0.00000236,-0.00000225,-0.00000244,0.00003
 599,-0.00004724,-0.00006610,0.00001107,0.00000035,0.00000561,0.0000016
 2,0.00000630,0.00000991,-0.00000193,0.00000178,0.00000255,-0.00017450,
 -0.00005137,-0.00004099,-0.00006907,0.00003570,-0.00010646,0.00009876,
 -0.00007157,0.00000160,-0.00010835,-0.00012656,0.00010883,0.00920871,0
 .02372111,-0.02003627,-0.00180973,0.00064158,0.00220847,-0.05653759,-0
 .04614362,0.03512750,0.05966593,0.00001261,-0.00005545,0.00008118,-0.0
 0008602,0.00009793,0.00000028,0.00067626,-0.00004315,0.00018828,0.0000
 2581,-0.00014849,-0.00003134,0.00010354,-0.00035906,0.00011762,0.00117
 067,0.00019181,-0.00057726,-0.00028193,0.00020371,-0.00027966,-0.00063
 835,-0.00027210,-0.00016003,-0.00125798,0.00022883,-0.00235241,-0.0000
 3728,0.00007805,-0.00006463,-0.00001590,-0.00001156,0.00001456,-0.0000
 0025,0.00000478,-0.00000577,0.00000587,0.00002364,-0.00000970,0.000017
 51,0.00000691,-0.00001565,-0.00007173,0.00007378,0.00000335,0.00001124
 ,-0.00000525,-0.00002853,-0.00007584,0.00001514,0.00002206,0.00007826,
 0.00011803,-0.00000014,0.00004354,-0.00000657,0.00002748,-0.00000174,0
 .00000493,-0.00000348,-0.00000016,-0.00000445,-0.00000305,-0.00000513,
 -0.00000505,-0.00000321,-0.00000028,-0.00001760,-0.00001107,-0.0000052
 4,-0.00000153,0.00000392,0.00000871,-0.00000091,-0.00000048,-0.0000052
 5,0.00000212,-0.00000457,0.00016807,0.00061969,0.00014059,-0.00000381,
 0.00000385,-0.00010542,-0.00001710,-0.00012141,-0.00003536,-0.00006890
 ,-0.00003462,0.00009406,-0.00192882,-0.01992585,0.01188528,0.00129582,
 0.00136605,-0.00003261,-0.04949478,-0.20574145,0.12540474,0.05028142,0
 .22541817,0.00004520,0.00004335,-0.00004190,0.00005977,-0.00006016,-0.
 00007384,-0.00040801,-0.00032258,0.00025122,-0.00015448,0.00005567,-0.
 00012563,-0.00005116,-0.00018023,0.00019306,-0.00024971,0.00079892,-0.
 00041840,0.00006622,-0.00006550,0.00015551,0.00020248,-0.00008805,-0.0
 0016120,-0.00094298,0.00008131,0.00061046,0.00000251,-0.00003718,0.000
 03245,0.00001150,-0.00001034,0.00000305,-0.00000635,-0.00000264,0.0000
 0514,0.00000661,-0.00002305,0.00001544,-0.00005592,0.00003927,-0.00000
 852,0.00001192,-0.00001285,0.00002963,0.00001880,-0.00000900,-0.000002
 47,0.00002301,-0.00000928,0.00001696,0.00018520,-0.00005366,-0.0000992
 1,-0.00001738,0.00000680,-0.00001209,-0.00000139,-0.00000256,0.0000018
 7,-0.00000280,0.00000353,0.00000141,0.00000303,0.00000230,0.00000008,-
 0.00001205,0.00005820,0.00008712,-0.00000673,-0.00000190,-0.00000521,-
 0.00000083,-0.00000032,-0.00001212,0.00000358,-0.00000523,-0.00000626,
 -0.00006714,0.00001324,0.00023965,-0.00009877,0.00000763,-0.00016188,0
 .00004200,-0.00002967,-0.00007568,-0.00000739,0.00002094,0.00007451,-0
 .00160073,0.00389214,-0.00451923,0.00183271,-0.00211948,-0.00158894,0.
 03697412,0.12456783,-0.12855283,-0.03823558,-0.13612740,0.14000476,-0.
 00007069,0.00004604,0.00000307,0.00033505,0.00034364,0.00026386,-0.000
 34731,0.00008131,0.00003947,0.00008909,0.00008965,0.00007168,0.0001405
 6,0.00012286,-0.00005451,0.00203477,-0.00069507,0.00095031,-0.00042254
 ,0.00019355,-0.00113303,-0.00008020,-0.00022419,-0.00014395,0.00131144
 ,0.00003679,-0.00137946,0.00004030,-0.00008645,-0.00000967,0.00002940,
 0.00004640,-0.00001039,-0.00001129,-0.00000191,-0.00003973,-0.00004493
 ,-0.00012203,-0.00001158,0.00008387,-0.00006263,-0.00000969,-0.0000099
 5,0.00002961,-0.00004526,-0.00001739,-0.00001737,-0.00002146,-0.000389
 14,0.00020072,-0.00000207,-0.00014741,-0.00000935,0.00002568,-0.000020
 71,-0.00000361,0.00000946,0.00000474,-0.00000372,0.00000224,0.00000704
 ,0.00000225,0.00000171,0.00000085,0.00000072,-0.00000575,0.00001468,-0
 .00000309,-0.00003856,-0.00000017,-0.00001744,0.00000491,0.00000262,-0
 .00000075,0.00000307,-0.00000566,-0.00000367,0.00000128,-0.00000080,0.
 00020531,0.00016891,-0.00005351,-0.00003499,-0.00007369,0.00001289,-0.
 00005078,-0.00004304,-0.00001153,-0.00002090,0.00000759,-0.00730367,0.
 00498679,0.02855216,-0.00489940,0.00534756,-0.00070902,-0.07685015,0.0
 2995876,0.07154313,-0.00273500,0.00217928,0.00484909,0.07887606,0.0002
 0708,-0.00008216,0.00002486,-0.00014987,-0.00017472,-0.00020643,0.0005
 5025,-0.00044009,0.00054456,-0.00028616,0.00005500,-0.00020363,-0.0000
 1445,-0.00030645,0.00000325,-0.00052701,0.00081451,-0.00102991,0.00008
 778,-0.00011450,0.00082493,-0.00015460,-0.00019938,-0.00003865,-0.0028
 9253,0.00016423,-0.00091260,-0.00012618,0.00010723,-0.00004008,-0.0000
 2493,-0.00002456,0.00004071,-0.00002956,0.00000412,0.00001603,0.000021
 70,0.00006067,0.00001376,-0.00009035,0.00005966,0.00000111,-0.00003065
 ,0.00002550,0.00011278,0.00002194,0.00001908,-0.00000310,0.00017673,-0
 .00010451,-0.00000570,0.00011289,0.00006221,-0.00000133,0.00008313,-0.
 00001209,0.00002555,-0.00000626,0.00000753,-0.00000377,-0.00001660,-0.
 00000111,0.00000134,-0.00000852,-0.00000468,-0.00000345,0.00000852,0.0
 0000112,0.00000081,-0.00000869,0.00001163,0.00000184,0.00000068,-0.000
 00171,0.00000267,0.00000154,0.00000343,-0.00000090,0.00006966,0.000258
 68,0.00015772,-0.00005029,0.00001362,-0.00007194,-0.00000078,-0.000034
 98,-0.00004183,-0.00000850,-0.00000233,0.00003671,0.00686381,-0.010368
 61,-0.01701355,0.00460925,-0.00260597,0.00086746,0.02962295,-0.0734457
 9,-0.08786709,-0.00871471,0.00998070,0.02216379,-0.03629972,0.08147219
 ,-0.00007611,-0.00000121,0.00005937,0.00002420,0.00003541,0.00004262,0
 .00037649,-0.00017433,0.00054686,-0.00013859,0.00011133,-0.00012711,0.
 00009384,0.00001817,-0.00005736,0.00027698,0.00020143,0.00033699,-0.00
 003178,-0.00001409,-0.00030418,0.00004047,-0.00004581,0.00002561,-0.00
 162701,0.00067625,-0.00057307,0.00002953,0.00000061,-0.00003764,0.0000
 2348,0.00001608,0.00002473,-0.00001183,0.00000261,-0.00001198,-0.00000
 342,0.00001419,-0.00002913,0.00001417,-0.00003437,0.00000813,-0.000016
 95,-0.00000997,0.00005783,-0.00001547,0.00000631,0.00000289,-0.0001193
 7,0.00008371,-0.00000053,-0.00007470,0.00003359,0.00003999,-0.00000848
 ,0.00000372,0.00001018,0.00000172,0.00000067,-0.00000085,0.00000811,-0
 .00000395,-0.00000595,-0.00000210,-0.00000175,-0.00000205,0.00000886,-
 0.00002121,-0.00003906,0.00000138,-0.00000254,0.00000502,0.00000124,0.
 00000034,0.00000419,-0.00000386,0.,0.00000201,-0.00000395,-0.00002434,
 -0.00006614,0.00002293,0.00000399,0.00005300,-0.00001490,0.00001796,0.
 00002095,0.00000573,-0.00000856,-0.00001966,-0.00192950,0.00160828,0.0
 0525942,-0.00142807,0.00239012,0.00047807,0.07779058,-0.09058550,-0.26
 974244,0.00485760,-0.00750533,-0.01459988,-0.08267799,0.09445056,0.287
 02028,-0.00002899,-0.00000819,0.00007777,-0.00061578,-0.00019588,-0.00
 025373,0.00101534,0.00036046,-0.00070239,0.00009540,-0.00003036,-0.000
 21876,-0.00001321,-0.00030796,-0.00001004,-0.00049857,0.00128990,-0.00
 064054,0.00024391,-0.00012199,0.00064310,-0.00005642,0.00000499,0.0001
 1593,-0.00508474,0.00255000,-0.00113137,0.00001581,0.00003858,-0.00001
 098,-0.00000253,-0.00000537,-0.00000864,0.00000695,0.00000192,0.000019
 63,0.00008242,0.00016293,-0.00002230,-0.00017345,0.00009098,-0.0000174
 6,-0.00000868,0.00000788,0.00004963,-0.00001396,0.00001718,0.00002541,
 0.00001816,0.00001368,0.00001090,0.00021670,0.00000473,0.00000799,-0.0
 0000156,0.00000824,-0.00000410,0.00000076,-0.00000018,-0.00000337,0.00
 000152,-0.00000498,-0.00000329,0.00000077,0.00000064,0.00000235,-0.000
 00123,0.00003553,0.00002902,-0.00001036,0.00001153,-0.00000322,-0.0000
 0668,-0.00000225,0.00000098,0.00000525,-0.00000061,-0.00000051,0.00005
 511,0.00006993,0.00001330,-0.00000274,0.00001777,0.00000024,0.00000154
 ,-0.00000755,-0.00000248,-0.00001225,-0.00000639,0.00000733,-0.0183897
 3,-0.01846467,-0.01119505,0.00245902,-0.00089754,-0.00035085,-0.190839
 88,-0.10438540,-0.08927162,-0.00397904,-0.00208215,-0.00241836,0.01043
 809,0.00700245,0.00460676,0.20508306,0.00005570,0.00003742,-0.00008002
 ,0.00044695,0.00013180,0.00012720,-0.00027818,-0.00030198,0.00077435,-
 0.00004956,-0.00011032,0.00021139,-0.00003761,0.00007376,-0.00001665,0
 .00014942,-0.00014534,0.00024558,-0.00015643,-0.00005434,-0.00019334,-
 0.00008054,0.00015282,-0.00007969,0.00531685,-0.00184041,0.00165434,-0
 .00002357,-0.00005162,0.00002358,-0.00000351,0.00001324,0.00000627,-0.
 00001381,-0.00000490,-0.00000974,-0.00003950,-0.00013072,0.00002382,0.
 00017605,-0.00008782,0.00002444,0.00000186,0.00001175,-0.00005359,-0.0
 0000517,-0.00000856,-0.00001095,0.00002247,-0.00000102,-0.00002457,-0.
 00003462,-0.00002105,-0.00001084,0.00000720,-0.00000996,-0.00000409,0.
 00000017,-0.00000120,0.00000488,-0.00000599,0.00000565,0.00000612,-0.0
 0000119,0.00000062,-0.00000232,0.00000332,0.00001886,0.00000131,0.0000
 0091,-0.00000772,0.00000213,0.00000138,-0.00000092,-0.00000199,-0.0000
 0149,-0.00000264,-0.00000150,0.00000054,-0.00008791,-0.00003997,0.0000
 4546,-0.00001111,0.00005320,-0.00001868,0.00002972,0.00001954,0.000029
 69,0.00002171,-0.00004248,0.01504719,0.01144859,0.00955328,-0.00010425
 ,0.00013487,0.00072150,-0.11221037,-0.13022682,-0.07619876,-0.01685932
 ,-0.01168363,-0.01259381,-0.00621353,-0.00519744,-0.00124236,0.1148321
 6,0.13790662,-0.00005631,0.00002899,-0.00000961,-0.00011800,-0.0000272
 1,-0.00004589,-0.00000468,-0.00010674,0.00004131,-0.00007075,0.0000204
 2,-0.00003484,-0.00001449,-0.00014511,0.00014843,-0.00020833,0.0007291
 2,-0.00023045,0.00007041,-0.00002600,0.00007873,0.00019071,0.00003820,
 0.00000756,-0.00173916,0.00017456,0.00180990,0.00005494,-0.00002363,0.
 00002903,0.00001134,-0.00002576,-0.00002002,0.00002247,-0.00000258,0.0
 0001245,0.00002929,0.00002268,-0.00000751,-0.00004055,0.00001943,-0.00
 001248,0.00001114,-0.00001914,0.00002096,0.00001347,0.00000670,0.00000
 059,0.00000561,-0.00001648,0.00002757,0.00017646,-0.00004515,-0.000082
 85,-0.00004554,0.00001505,-0.00001765,0.00000017,-0.00000313,0.0000010
 5,0.00000688,0.00000094,-0.00000327,0.00000607,0.00000266,0.00000388,-
 0.00001955,0.00005305,0.00007935,-0.00000410,-0.00000369,-0.00000305,0
 .00000155,0.00000115,-0.00001276,0.00000171,-0.00000523,-0.00000614,-0
 .00006716,-0.00012522,-0.00004325,-0.00001125,0.00000942,-0.00001054,0
 .00001767,0.00000331,0.00000601,-0.00001158,-0.00000210,0.00002045,-0.
 00392782,0.00126068,-0.00546986,0.00190028,-0.00182907,-0.00066506,-0.
 09128309,-0.07466107,-0.10443954,0.01453222,0.00937372,0.00874296,-0.0
 2008877,-0.01184651,-0.00838111,0.10065872,0.07715375,0.10846562\\-0.0
 0000004,-0.00000403,-0.00000609,0.00000030,0.00000008,0.00000209,0.000
 00353,-0.00000393,-0.00000111,0.00000029,-0.00000240,0.00000540,-0.000
 00126,0.00000266,0.00000130,0.00000542,0.00000690,-0.00000668,-0.00000
 328,-0.00000072,0.00000098,0.00000288,0.00000103,-0.00000079,-0.000006
 35,-0.00000291,-0.00000438,-0.00000800,-0.00000156,-0.00000077,-0.0000
 0058,-0.00000436,-0.00000262,-0.00000193,-0.00000724,-0.00000055,-0.00
 000140,-0.00000221,-0.00000300,-0.00000047,-0.00000446,0.00000297,0.00
 000008,-0.00000073,0.00000118,-0.00000017,0.00000382,0.00000145,-0.000
 00161,0.00000483,-0.00000137,-0.00000196,0.00000266,0.00000158,0.00000
 673,-0.00000934,-0.00000548,-0.00000488,-0.00000643,-0.00000739,-0.000
 00596,-0.00000599,-0.00000387,-0.00000489,-0.00000945,-0.00000463,0.00
 000003,-0.00000096,-0.00001139,-0.00000163,0.00000481,-0.00000544,-0.0
 0000035,0.00000573,0.00000002,-0.00000342,0.00000160,-0.00000222,0.000
 00725,0.00000766,0.00001035,0.00000324,-0.00000146,0.00000486,0.000001
 31,-0.00000149,0.00000560,0.00000342,0.00000158,0.00000868,0.00000556,
 0.00000492,0.00001077,-0.00000003,0.00000440,0.00000042,0.00000168,0.0
 0000352,0.00000019,0.00000250,0.00000479,0.00000525,0.00000173,0.00000
 256,0.00000264,0.00000229,0.00000611,0.00000207\\\@


 A MATHEMATICIAN IS A MACHINE FOR TURNING COFFEE INTO THEOREMS.
     -- QUOTED BY PAUL ERDOS
 Job cpu time:       0 days  2 hours 45 minutes  1.9 seconds.
 File lengths (MBytes):  RWF=    766 Int=      0 D2E=      0 Chk=     19 Scr=      1
 Normal termination of Gaussian 09 at Tue Oct 24 16:09:02 2017.
