 Entering Gaussian System, Link 0=g09
 Initial command:
 /share/apps//g09/l1.exe "/scratch/Gau-1168.inp" -scrdir="/scratch/"
 Entering Link 1 = /share/apps//g09/l1.exe PID=      1170.
  
 Copyright (c) 1988,1990,1992,1993,1995,1998,2003,2009,2013,
            Gaussian, Inc.  All Rights Reserved.
  
 This is part of the Gaussian(R) 09 program.  It is based on
 the Gaussian(R) 03 system (copyright 2003, Gaussian, Inc.),
 the Gaussian(R) 98 system (copyright 1998, Gaussian, Inc.),
 the Gaussian(R) 94 system (copyright 1995, Gaussian, Inc.),
 the Gaussian 92(TM) system (copyright 1992, Gaussian, Inc.),
 the Gaussian 90(TM) system (copyright 1990, Gaussian, Inc.),
 the Gaussian 88(TM) system (copyright 1988, Gaussian, Inc.),
 the Gaussian 86(TM) system (copyright 1986, Carnegie Mellon
 University), and the Gaussian 82(TM) system (copyright 1983,
 Carnegie Mellon University). Gaussian is a federally registered
 trademark of Gaussian, Inc.
  
 This software contains proprietary and confidential information,
 including trade secrets, belonging to Gaussian, Inc.
  
 This software is provided under written license and may be
 used, copied, transmitted, or stored only in accord with that
 written license.
  
 The following legend is applicable only to US Government
 contracts under FAR:
  
                    RESTRICTED RIGHTS LEGEND
  
 Use, reproduction and disclosure by the US Government is
 subject to restrictions as set forth in subparagraphs (a)
 and (c) of the Commercial Computer Software - Restricted
 Rights clause in FAR 52.227-19.
  
 Gaussian, Inc.
 340 Quinnipiac St., Bldg. 40, Wallingford CT 06492
  
  
 ---------------------------------------------------------------
 Warning -- This program may not be used in any manner that
 competes with the business of Gaussian, Inc. or will provide
 assistance to any competitor of Gaussian, Inc.  The licensee
 of this program is prohibited from giving any competitor of
 Gaussian, Inc. access to this program.  By using this program,
 the user acknowledges that Gaussian, Inc. is engaged in the
 business of creating and licensing software in the field of
 computational chemistry and represents and warrants to the
 licensee that it is not a competitor of Gaussian, Inc. and that
 it will not use this program in any manner prohibited above.
 ---------------------------------------------------------------
  

 Cite this work as:
 Gaussian 09, Revision D.01,
 M. J. Frisch, G. W. Trucks, H. B. Schlegel, G. E. Scuseria, 
 M. A. Robb, J. R. Cheeseman, G. Scalmani, V. Barone, B. Mennucci, 
 G. A. Petersson, H. Nakatsuji, M. Caricato, X. Li, H. P. Hratchian, 
 A. F. Izmaylov, J. Bloino, G. Zheng, J. L. Sonnenberg, M. Hada, 
 M. Ehara, K. Toyota, R. Fukuda, J. Hasegawa, M. Ishida, T. Nakajima, 
 Y. Honda, O. Kitao, H. Nakai, T. Vreven, J. A. Montgomery, Jr., 
 J. E. Peralta, F. Ogliaro, M. Bearpark, J. J. Heyd, E. Brothers, 
 K. N. Kudin, V. N. Staroverov, T. Keith, R. Kobayashi, J. Normand, 
 K. Raghavachari, A. Rendell, J. C. Burant, S. S. Iyengar, J. Tomasi, 
 M. Cossi, N. Rega, J. M. Millam, M. Klene, J. E. Knox, J. B. Cross, 
 V. Bakken, C. Adamo, J. Jaramillo, R. Gomperts, R. E. Stratmann, 
 O. Yazyev, A. J. Austin, R. Cammi, C. Pomelli, J. W. Ochterski, 
 R. L. Martin, K. Morokuma, V. G. Zakrzewski, G. A. Voth, 
 P. Salvador, J. J. Dannenberg, S. Dapprich, A. D. Daniels, 
 O. Farkas, J. B. Foresman, J. V. Ortiz, J. Cioslowski, 
 and D. J. Fox, Gaussian, Inc., Wallingford CT, 2013.
 
 ******************************************
 Gaussian 09:  EM64L-G09RevD.01 24-Apr-2013
                24-Oct-2017 
 ******************************************
 %nproc=20
 Will use up to   20 processors via shared memory.
 %mem=100GB
 %chk=Ac-4_cGalMe.chk
 -------------------------------------------------------------------
 #P PBE1PBE/6-311+G(d,p) opt optcyc=999 freq EmpiricalDispersion=GD3
 -------------------------------------------------------------------
 1/6=999,14=-1,18=20,19=15,26=3,38=1/1,3;
 2/9=110,12=2,17=6,18=5,40=1/2;
 3/5=4,6=6,7=111,11=2,16=1,25=1,30=1,71=1,74=-13,124=31/1,2,3;
 4//1;
 5/5=2,38=5/2;
 6/7=2,8=2,9=2,10=2,28=1/1;
 7//1,2,3,16;
 1/6=999,14=-1,18=20,19=15,26=3/3(2);
 2/9=110/2;
 99//99;
 2/9=110/2;
 3/5=4,6=6,7=111,11=2,16=1,25=1,30=1,71=1,74=-13,124=31/1,2,3;
 4/5=5,16=3,69=1/1;
 5/5=2,38=5/2;
 7//1,2,3,16;
 1/6=999,14=-1,18=20,19=15,26=3/3(-5);
 2/9=110/2;
 6/7=2,8=2,9=2,10=2,19=2,28=1/1;
 99/9=1/99;
 Leave Link    1 at Tue Oct 24 13:38:21 2017, MaxMem= 13421772800 cpu:         1.6
 (Enter /share/apps//g09/l101.exe)
 -------
 disacch
 -------
 Symbolic Z-matrix:
 Charge =  1 Multiplicity = 1
 C                    -1.34232   2.10467  -1.01052 
 C                    -0.37552   1.14446  -0.32959 
 C                     0.97393   1.7089    0.10013 
 C                     1.86035   0.63808   0.73599 
 C                     1.99077  -0.58904  -0.21771 
 C                     1.0507   -0.43429  -1.42378 
 O                    -0.21793  -0.01899  -1.20437 
 O                     3.0946    1.23368   1.0545 
 O                     1.70174   2.38319  -1.01486 
 O                    -0.77037   2.61428  -2.19988 
 H                    -1.59803   2.91509  -0.29881 
 H                    -2.27072   1.5433   -1.22686 
 H                    -0.86646   0.78833   0.59377 
 H                     0.82941   2.54412   0.79635 
 H                     1.33249   0.31422   1.65576 
 H                     3.01969  -0.59619  -0.60953 
 H                     1.0226   -1.33075  -2.05311 
 O                     1.84184  -1.85746   0.39014 
 C                    -1.72568   3.33139  -2.99324 
 H                    -1.20075   3.66464  -3.89529 
 H                    -2.56693   2.6797   -3.28206 
 H                    -2.11236   4.2108   -2.45232 
 C                     0.56998  -2.18397   0.97763 
 H                    -0.23367  -2.24418   0.22836 
 H                     0.71024  -3.16975   1.43275 
 H                     0.28077  -1.47574   1.7717 
 C                     3.86958   0.4789    2.00489 
 H                     3.31146   0.35225   2.94722 
 H                     4.14986  -0.51121   1.6131 
 H                     4.77393   1.06689   2.19036 
 C                     1.98122   1.80183  -2.13853 
 O                     1.77414   0.56993  -2.43173 
 C                     2.59747   2.6658   -3.17157 
 H                     3.27236   3.39187  -2.70562 
 H                     1.78024   3.22495  -3.6534 
 H                     3.1107    2.06282  -3.92535 
 
 NAtoms=     36 NQM=       36 NQMF=       0 NMMI=      0 NMMIF=      0
                NMic=       0 NMicF=      0.
                    Isotopes and Nuclear Properties:
 (Nuclear quadrupole moments (NQMom) in fm**2, nuclear magnetic moments (NMagM)
  in nuclear magnetons)

  Atom         1           2           3           4           5           6           7           8           9          10
 IAtWgt=          12          12          12          12          12          12          16          16          16          16
 AtmWgt=  12.0000000  12.0000000  12.0000000  12.0000000  12.0000000  12.0000000  15.9949146  15.9949146  15.9949146  15.9949146
 NucSpn=           0           0           0           0           0           0           0           0           0           0
 AtZEff=   0.0000000   0.0000000   0.0000000   0.0000000   0.0000000   0.0000000   0.0000000   0.0000000   0.0000000   0.0000000
 NQMom=    0.0000000   0.0000000   0.0000000   0.0000000   0.0000000   0.0000000   0.0000000   0.0000000   0.0000000   0.0000000
 NMagM=    0.0000000   0.0000000   0.0000000   0.0000000   0.0000000   0.0000000   0.0000000   0.0000000   0.0000000   0.0000000
 AtZNuc=   6.0000000   6.0000000   6.0000000   6.0000000   6.0000000   6.0000000   8.0000000   8.0000000   8.0000000   8.0000000

  Atom        11          12          13          14          15          16          17          18          19          20
 IAtWgt=           1           1           1           1           1           1           1          16          12           1
 AtmWgt=   1.0078250   1.0078250   1.0078250   1.0078250   1.0078250   1.0078250   1.0078250  15.9949146  12.0000000   1.0078250
 NucSpn=           1           1           1           1           1           1           1           0           0           1
 AtZEff=   0.0000000   0.0000000   0.0000000   0.0000000   0.0000000   0.0000000   0.0000000   0.0000000   0.0000000   0.0000000
 NQMom=    0.0000000   0.0000000   0.0000000   0.0000000   0.0000000   0.0000000   0.0000000   0.0000000   0.0000000   0.0000000
 NMagM=    2.7928460   2.7928460   2.7928460   2.7928460   2.7928460   2.7928460   2.7928460   0.0000000   0.0000000   2.7928460
 AtZNuc=   1.0000000   1.0000000   1.0000000   1.0000000   1.0000000   1.0000000   1.0000000   8.0000000   6.0000000   1.0000000

  Atom        21          22          23          24          25          26          27          28          29          30
 IAtWgt=           1           1          12           1           1           1          12           1           1           1
 AtmWgt=   1.0078250   1.0078250  12.0000000   1.0078250   1.0078250   1.0078250  12.0000000   1.0078250   1.0078250   1.0078250
 NucSpn=           1           1           0           1           1           1           0           1           1           1
 AtZEff=   0.0000000   0.0000000   0.0000000   0.0000000   0.0000000   0.0000000   0.0000000   0.0000000   0.0000000   0.0000000
 NQMom=    0.0000000   0.0000000   0.0000000   0.0000000   0.0000000   0.0000000   0.0000000   0.0000000   0.0000000   0.0000000
 NMagM=    2.7928460   2.7928460   0.0000000   2.7928460   2.7928460   2.7928460   0.0000000   2.7928460   2.7928460   2.7928460
 AtZNuc=   1.0000000   1.0000000   6.0000000   1.0000000   1.0000000   1.0000000   6.0000000   1.0000000   1.0000000   1.0000000

  Atom        31          32          33          34          35          36
 IAtWgt=          12          16          12           1           1           1
 AtmWgt=  12.0000000  15.9949146  12.0000000   1.0078250   1.0078250   1.0078250
 NucSpn=           0           0           0           1           1           1
 AtZEff=   0.0000000   0.0000000   0.0000000   0.0000000   0.0000000   0.0000000
 NQMom=    0.0000000   0.0000000   0.0000000   0.0000000   0.0000000   0.0000000
 NMagM=    0.0000000   0.0000000   0.0000000   2.7928460   2.7928460   2.7928460
 AtZNuc=   6.0000000   8.0000000   6.0000000   1.0000000   1.0000000   1.0000000
 Leave Link  101 at Tue Oct 24 13:38:22 2017, MaxMem= 13421772800 cpu:         3.4
 (Enter /share/apps//g09/l103.exe)

 GradGradGradGradGradGradGradGradGradGradGradGradGradGradGradGradGradGrad
 Berny optimization.
 Initialization pass.
                           ----------------------------
                           !    Initial Parameters    !
                           ! (Angstroms and Degrees)  !
 --------------------------                            --------------------------
 ! Name  Definition              Value          Derivative Info.                !
 --------------------------------------------------------------------------------
 ! R1    R(1,2)                  1.5233         estimate D2E/DX2                !
 ! R2    R(1,10)                 1.4147         estimate D2E/DX2                !
 ! R3    R(1,11)                 1.1085         estimate D2E/DX2                !
 ! R4    R(1,12)                 1.1063         estimate D2E/DX2                !
 ! R5    R(2,3)                  1.5246         estimate D2E/DX2                !
 ! R6    R(2,7)                  1.4641         estimate D2E/DX2                !
 ! R7    R(2,13)                 1.1047         estimate D2E/DX2                !
 ! R8    R(3,4)                  1.5286         estimate D2E/DX2                !
 ! R9    R(3,9)                  1.4925         estimate D2E/DX2                !
 ! R10   R(3,14)                 1.0969         estimate D2E/DX2                !
 ! R11   R(4,5)                  1.5596         estimate D2E/DX2                !
 ! R12   R(4,8)                  1.407          estimate D2E/DX2                !
 ! R13   R(4,15)                 1.1088         estimate D2E/DX2                !
 ! R14   R(5,6)                  1.537          estimate D2E/DX2                !
 ! R15   R(5,16)                 1.101          estimate D2E/DX2                !
 ! R16   R(5,18)                 1.4144         estimate D2E/DX2                !
 ! R17   R(6,7)                  1.3528         estimate D2E/DX2                !
 ! R18   R(6,17)                 1.0957         estimate D2E/DX2                !
 ! R19   R(6,32)                 1.5962         estimate D2E/DX2                !
 ! R20   R(8,27)                 1.44           estimate D2E/DX2                !
 ! R21   R(9,31)                 1.2957         estimate D2E/DX2                !
 ! R22   R(10,19)                1.434          estimate D2E/DX2                !
 ! R23   R(18,23)                1.4385         estimate D2E/DX2                !
 ! R24   R(19,20)                1.0956         estimate D2E/DX2                !
 ! R25   R(19,21)                1.1026         estimate D2E/DX2                !
 ! R26   R(19,22)                1.1025         estimate D2E/DX2                !
 ! R27   R(23,24)                1.1004         estimate D2E/DX2                !
 ! R28   R(23,25)                1.0948         estimate D2E/DX2                !
 ! R29   R(23,26)                1.1026         estimate D2E/DX2                !
 ! R30   R(27,28)                1.1025         estimate D2E/DX2                !
 ! R31   R(27,29)                1.1011         estimate D2E/DX2                !
 ! R32   R(27,30)                1.0945         estimate D2E/DX2                !
 ! R33   R(31,32)                1.2831         estimate D2E/DX2                !
 ! R34   R(31,33)                1.481          estimate D2E/DX2                !
 ! R35   R(33,34)                1.0953         estimate D2E/DX2                !
 ! R36   R(33,35)                1.1012         estimate D2E/DX2                !
 ! R37   R(33,36)                1.0932         estimate D2E/DX2                !
 ! A1    A(2,1,10)             110.2602         estimate D2E/DX2                !
 ! A2    A(2,1,11)             108.679          estimate D2E/DX2                !
 ! A3    A(2,1,12)             107.4684         estimate D2E/DX2                !
 ! A4    A(10,1,11)            111.6966         estimate D2E/DX2                !
 ! A5    A(10,1,12)            110.9569         estimate D2E/DX2                !
 ! A6    A(11,1,12)            107.6356         estimate D2E/DX2                !
 ! A7    A(1,2,3)              117.0268         estimate D2E/DX2                !
 ! A8    A(1,2,7)              107.586          estimate D2E/DX2                !
 ! A9    A(1,2,13)             107.1444         estimate D2E/DX2                !
 ! A10   A(3,2,7)              111.5514         estimate D2E/DX2                !
 ! A11   A(3,2,13)             106.0881         estimate D2E/DX2                !
 ! A12   A(7,2,13)             106.9207         estimate D2E/DX2                !
 ! A13   A(2,3,4)              111.7879         estimate D2E/DX2                !
 ! A14   A(2,3,9)              112.8505         estimate D2E/DX2                !
 ! A15   A(2,3,14)             110.1325         estimate D2E/DX2                !
 ! A16   A(4,3,9)              110.1486         estimate D2E/DX2                !
 ! A17   A(4,3,14)             110.2289         estimate D2E/DX2                !
 ! A18   A(9,3,14)             101.2104         estimate D2E/DX2                !
 ! A19   A(3,4,5)              110.2            estimate D2E/DX2                !
 ! A20   A(3,4,8)              107.8375         estimate D2E/DX2                !
 ! A21   A(3,4,15)             105.8781         estimate D2E/DX2                !
 ! A22   A(5,4,8)              113.4625         estimate D2E/DX2                !
 ! A23   A(5,4,15)             108.496          estimate D2E/DX2                !
 ! A24   A(8,4,15)             110.6998         estimate D2E/DX2                !
 ! A25   A(4,5,6)              110.4555         estimate D2E/DX2                !
 ! A26   A(4,5,16)             107.5099         estimate D2E/DX2                !
 ! A27   A(4,5,18)             115.7218         estimate D2E/DX2                !
 ! A28   A(6,5,16)             107.0367         estimate D2E/DX2                !
 ! A29   A(6,5,18)             111.292          estimate D2E/DX2                !
 ! A30   A(16,5,18)            104.2121         estimate D2E/DX2                !
 ! A31   A(5,6,7)              118.5043         estimate D2E/DX2                !
 ! A32   A(5,6,17)             112.5833         estimate D2E/DX2                !
 ! A33   A(5,6,32)             106.359          estimate D2E/DX2                !
 ! A34   A(7,6,17)             108.6803         estimate D2E/DX2                !
 ! A35   A(7,6,32)             109.5308         estimate D2E/DX2                !
 ! A36   A(17,6,32)             99.42           estimate D2E/DX2                !
 ! A37   A(2,7,6)              116.2182         estimate D2E/DX2                !
 ! A38   A(4,8,27)             113.556          estimate D2E/DX2                !
 ! A39   A(3,9,31)             123.3921         estimate D2E/DX2                !
 ! A40   A(1,10,19)            112.0822         estimate D2E/DX2                !
 ! A41   A(5,18,23)            118.1741         estimate D2E/DX2                !
 ! A42   A(10,19,20)           106.7648         estimate D2E/DX2                !
 ! A43   A(10,19,21)           110.9543         estimate D2E/DX2                !
 ! A44   A(10,19,22)           111.1682         estimate D2E/DX2                !
 ! A45   A(20,19,21)           109.2482         estimate D2E/DX2                !
 ! A46   A(20,19,22)           109.2315         estimate D2E/DX2                !
 ! A47   A(21,19,22)           109.4123         estimate D2E/DX2                !
 ! A48   A(18,23,24)           112.3366         estimate D2E/DX2                !
 ! A49   A(18,23,25)           105.1221         estimate D2E/DX2                !
 ! A50   A(18,23,26)           112.3476         estimate D2E/DX2                !
 ! A51   A(24,23,25)           109.1086         estimate D2E/DX2                !
 ! A52   A(24,23,26)           109.5087         estimate D2E/DX2                !
 ! A53   A(25,23,26)           108.2147         estimate D2E/DX2                !
 ! A54   A(8,27,28)            110.6025         estimate D2E/DX2                !
 ! A55   A(8,27,29)            111.9308         estimate D2E/DX2                !
 ! A56   A(8,27,30)            105.9581         estimate D2E/DX2                !
 ! A57   A(28,27,29)           109.25           estimate D2E/DX2                !
 ! A58   A(28,27,30)           109.5816         estimate D2E/DX2                !
 ! A59   A(29,27,30)           109.4536         estimate D2E/DX2                !
 ! A60   A(9,31,32)            126.4517         estimate D2E/DX2                !
 ! A61   A(9,31,33)            115.654          estimate D2E/DX2                !
 ! A62   A(32,31,33)           117.8942         estimate D2E/DX2                !
 ! A63   A(6,32,31)            122.1997         estimate D2E/DX2                !
 ! A64   A(31,33,34)           110.2646         estimate D2E/DX2                !
 ! A65   A(31,33,35)           107.0143         estimate D2E/DX2                !
 ! A66   A(31,33,36)           110.7642         estimate D2E/DX2                !
 ! A67   A(34,33,35)           107.8667         estimate D2E/DX2                !
 ! A68   A(34,33,36)           111.6947         estimate D2E/DX2                !
 ! A69   A(35,33,36)           109.0725         estimate D2E/DX2                !
 ! D1    D(10,1,2,3)            60.4924         estimate D2E/DX2                !
 ! D2    D(10,1,2,7)           -65.9679         estimate D2E/DX2                !
 ! D3    D(10,1,2,13)          179.3685         estimate D2E/DX2                !
 ! D4    D(11,1,2,3)           -62.2439         estimate D2E/DX2                !
 ! D5    D(11,1,2,7)           171.2958         estimate D2E/DX2                !
 ! D6    D(11,1,2,13)           56.6322         estimate D2E/DX2                !
 ! D7    D(12,1,2,3)          -178.4536         estimate D2E/DX2                !
 ! D8    D(12,1,2,7)            55.0861         estimate D2E/DX2                !
 ! D9    D(12,1,2,13)          -59.5774         estimate D2E/DX2                !
 ! D10   D(2,1,10,19)          169.6591         estimate D2E/DX2                !
 ! D11   D(11,1,10,19)         -69.3914         estimate D2E/DX2                !
 ! D12   D(12,1,10,19)          50.711          estimate D2E/DX2                !
 ! D13   D(1,2,3,4)           -178.5439         estimate D2E/DX2                !
 ! D14   D(1,2,3,9)            -53.7244         estimate D2E/DX2                !
 ! D15   D(1,2,3,14)            58.5584         estimate D2E/DX2                !
 ! D16   D(7,2,3,4)            -54.0624         estimate D2E/DX2                !
 ! D17   D(7,2,3,9)             70.757          estimate D2E/DX2                !
 ! D18   D(7,2,3,14)          -176.9601         estimate D2E/DX2                !
 ! D19   D(13,2,3,4)            62.015          estimate D2E/DX2                !
 ! D20   D(13,2,3,9)          -173.1656         estimate D2E/DX2                !
 ! D21   D(13,2,3,14)          -60.8827         estimate D2E/DX2                !
 ! D22   D(1,2,7,6)            132.9538         estimate D2E/DX2                !
 ! D23   D(3,2,7,6)              3.3337         estimate D2E/DX2                !
 ! D24   D(13,2,7,6)          -112.2339         estimate D2E/DX2                !
 ! D25   D(2,3,4,5)             53.5449         estimate D2E/DX2                !
 ! D26   D(2,3,4,8)            177.8819         estimate D2E/DX2                !
 ! D27   D(2,3,4,15)           -63.5905         estimate D2E/DX2                !
 ! D28   D(9,3,4,5)            -72.7633         estimate D2E/DX2                !
 ! D29   D(9,3,4,8)             51.5738         estimate D2E/DX2                !
 ! D30   D(9,3,4,15)           170.1013         estimate D2E/DX2                !
 ! D31   D(14,3,4,5)           176.3877         estimate D2E/DX2                !
 ! D32   D(14,3,4,8)           -59.2752         estimate D2E/DX2                !
 ! D33   D(14,3,4,15)           59.2523         estimate D2E/DX2                !
 ! D34   D(2,3,9,31)           -55.7189         estimate D2E/DX2                !
 ! D35   D(4,3,9,31)            69.989          estimate D2E/DX2                !
 ! D36   D(14,3,9,31)         -173.3831         estimate D2E/DX2                !
 ! D37   D(3,4,5,6)             -7.2468         estimate D2E/DX2                !
 ! D38   D(3,4,5,16)           109.2132         estimate D2E/DX2                !
 ! D39   D(3,4,5,18)          -134.8271         estimate D2E/DX2                !
 ! D40   D(8,4,5,6)           -128.278          estimate D2E/DX2                !
 ! D41   D(8,4,5,16)           -11.818          estimate D2E/DX2                !
 ! D42   D(8,4,5,18)           104.1416         estimate D2E/DX2                !
 ! D43   D(15,4,5,6)           108.2512         estimate D2E/DX2                !
 ! D44   D(15,4,5,16)         -135.2888         estimate D2E/DX2                !
 ! D45   D(15,4,5,18)          -19.3291         estimate D2E/DX2                !
 ! D46   D(3,4,8,27)           162.3192         estimate D2E/DX2                !
 ! D47   D(5,4,8,27)           -75.3304         estimate D2E/DX2                !
 ! D48   D(15,4,8,27)           46.9256         estimate D2E/DX2                !
 ! D49   D(4,5,6,7)            -44.6328         estimate D2E/DX2                !
 ! D50   D(4,5,6,17)          -172.9928         estimate D2E/DX2                !
 ! D51   D(4,5,6,32)            79.1389         estimate D2E/DX2                !
 ! D52   D(16,5,6,7)          -161.3865         estimate D2E/DX2                !
 ! D53   D(16,5,6,17)           70.2534         estimate D2E/DX2                !
 ! D54   D(16,5,6,32)          -37.6148         estimate D2E/DX2                !
 ! D55   D(18,5,6,7)            85.3465         estimate D2E/DX2                !
 ! D56   D(18,5,6,17)          -43.0136         estimate D2E/DX2                !
 ! D57   D(18,5,6,32)         -150.8818         estimate D2E/DX2                !
 ! D58   D(4,5,18,23)           63.851          estimate D2E/DX2                !
 ! D59   D(6,5,18,23)          -63.3117         estimate D2E/DX2                !
 ! D60   D(16,5,18,23)        -178.3408         estimate D2E/DX2                !
 ! D61   D(5,6,7,2)             47.3799         estimate D2E/DX2                !
 ! D62   D(17,6,7,2)           177.5385         estimate D2E/DX2                !
 ! D63   D(32,6,7,2)           -74.8086         estimate D2E/DX2                !
 ! D64   D(5,6,32,31)          -65.9078         estimate D2E/DX2                !
 ! D65   D(7,6,32,31)           63.2788         estimate D2E/DX2                !
 ! D66   D(17,6,32,31)         177.0658         estimate D2E/DX2                !
 ! D67   D(4,8,27,28)          -59.1616         estimate D2E/DX2                !
 ! D68   D(4,8,27,29)           62.9148         estimate D2E/DX2                !
 ! D69   D(4,8,27,30)         -177.8402         estimate D2E/DX2                !
 ! D70   D(3,9,31,32)           -5.2731         estimate D2E/DX2                !
 ! D71   D(3,9,31,33)          174.6029         estimate D2E/DX2                !
 ! D72   D(1,10,19,20)        -178.7277         estimate D2E/DX2                !
 ! D73   D(1,10,19,21)         -59.7781         estimate D2E/DX2                !
 ! D74   D(1,10,19,22)          62.2236         estimate D2E/DX2                !
 ! D75   D(5,18,23,24)          64.8835         estimate D2E/DX2                !
 ! D76   D(5,18,23,25)        -176.585          estimate D2E/DX2                !
 ! D77   D(5,18,23,26)         -59.1219         estimate D2E/DX2                !
 ! D78   D(9,31,32,6)            2.976          estimate D2E/DX2                !
 ! D79   D(33,31,32,6)        -176.8975         estimate D2E/DX2                !
 ! D80   D(9,31,33,34)          36.0838         estimate D2E/DX2                !
 ! D81   D(9,31,33,35)         -80.9809         estimate D2E/DX2                !
 ! D82   D(9,31,33,36)         160.237          estimate D2E/DX2                !
 ! D83   D(32,31,33,34)       -144.0291         estimate D2E/DX2                !
 ! D84   D(32,31,33,35)         98.9062         estimate D2E/DX2                !
 ! D85   D(32,31,33,36)        -19.8759         estimate D2E/DX2                !
 --------------------------------------------------------------------------------
 Trust Radius=3.00D-01 FncErr=1.00D-07 GrdErr=1.00D-06
 Number of steps in this run=    216 maximum allowed number of steps=    216.
 GradGradGradGradGradGradGradGradGradGradGradGradGradGradGradGradGradGrad

 Leave Link  103 at Tue Oct 24 13:38:22 2017, MaxMem= 13421772800 cpu:         0.2
 (Enter /share/apps//g09/l202.exe)
                          Input orientation:                          
 ---------------------------------------------------------------------
 Center     Atomic      Atomic             Coordinates (Angstroms)
 Number     Number       Type             X           Y           Z
 ---------------------------------------------------------------------
      1          6           0       -1.342320    2.104670   -1.010520
      2          6           0       -0.375520    1.144460   -0.329590
      3          6           0        0.973930    1.708900    0.100130
      4          6           0        1.860350    0.638080    0.735990
      5          6           0        1.990770   -0.589040   -0.217710
      6          6           0        1.050700   -0.434290   -1.423780
      7          8           0       -0.217930   -0.018990   -1.204370
      8          8           0        3.094600    1.233680    1.054500
      9          8           0        1.701740    2.383190   -1.014860
     10          8           0       -0.770370    2.614280   -2.199880
     11          1           0       -1.598030    2.915090   -0.298810
     12          1           0       -2.270720    1.543300   -1.226860
     13          1           0       -0.866460    0.788330    0.593770
     14          1           0        0.829410    2.544120    0.796350
     15          1           0        1.332490    0.314220    1.655760
     16          1           0        3.019690   -0.596190   -0.609530
     17          1           0        1.022600   -1.330750   -2.053110
     18          8           0        1.841840   -1.857460    0.390140
     19          6           0       -1.725680    3.331390   -2.993240
     20          1           0       -1.200750    3.664640   -3.895290
     21          1           0       -2.566930    2.679700   -3.282060
     22          1           0       -2.112360    4.210800   -2.452320
     23          6           0        0.569980   -2.183970    0.977630
     24          1           0       -0.233670   -2.244180    0.228360
     25          1           0        0.710240   -3.169750    1.432750
     26          1           0        0.280770   -1.475740    1.771700
     27          6           0        3.869580    0.478900    2.004890
     28          1           0        3.311460    0.352250    2.947220
     29          1           0        4.149860   -0.511210    1.613100
     30          1           0        4.773930    1.066890    2.190360
     31          6           0        1.981220    1.801830   -2.138530
     32          8           0        1.774140    0.569930   -2.431730
     33          6           0        2.597470    2.665800   -3.171570
     34          1           0        3.272360    3.391870   -2.705620
     35          1           0        1.780240    3.224950   -3.653400
     36          1           0        3.110700    2.062820   -3.925350
 ---------------------------------------------------------------------
                    Distance matrix (angstroms):
                    1          2          3          4          5
     1  C    0.000000
     2  C    1.523276   0.000000
     3  C    2.599075   1.524555   0.000000
     4  C    3.931702   2.528042   1.528631   0.000000
     5  C    4.358223   2.935450   2.532887   1.559608   0.000000
     6  C    3.513353   2.392448   2.630867   2.543642   1.536972
     7  O    2.410760   1.464135   2.471407   2.918216   2.485319
     8  O    4.970834   3.737031   2.373583   1.406969   2.481787
     9  O    3.056778   2.513773   1.492507   2.477104   3.090815
    10  O    1.414711   2.411278   3.025284   4.409692   4.670562
    11  H    1.108467   2.151885   2.868628   4.268018   5.016472
    12  H    1.106285   2.134467   3.509427   4.662397   4.870888
    13  H    2.129070   1.104737   2.116168   2.734647   3.274051
    14  H    2.859074   2.163018   1.096905   2.167826   3.491957
    15  H    4.179637   2.747401   2.119831   1.108827   2.181536
    16  H    5.146122   3.825661   3.162624   2.162849   1.101022
    17  H    4.299064   3.324444   3.725357   3.515280   2.203674
    18  O    5.272494   3.800818   3.681888   2.519459   1.414408
    19  C    2.362834   3.701436   4.414669   5.832725   6.073330
    20  H    3.282598   4.443707   4.951518   6.322907   6.465616
    21  H    2.643903   3.984510   4.991929   6.317733   6.391207
    22  H    2.665996   4.114005   4.722255   6.221903   6.698330
    23  C    5.099222   3.698816   4.010937   3.112461   2.447710
    24  H    4.655795   3.437195   4.135406   3.598615   2.808309
    25  H    6.164582   4.785094   5.064251   4.038291   3.320217
    26  H    4.816067   3.422219   3.662861   2.834785   2.769131
    27  C    6.236965   4.890158   3.677744   2.381691   3.100060
    28  H    6.355498   4.995889   3.925617   2.660255   3.556266
    29  H    6.624972   5.195609   4.159868   2.707775   2.831888
    30  H    6.980769   5.733498   4.384203   3.284512   4.035701
    31  C    3.522788   3.042798   2.456597   3.103512   3.066904
    32  O    3.753344   3.061064   2.889274   3.169626   2.508391
    33  C    4.528460   4.385202   3.775654   4.463633   4.437044
    34  H    5.081881   4.899326   3.998425   4.628370   4.866191
    35  H    4.241488   4.474757   4.127654   5.095592   5.137588
    36  H    5.322347   5.091817   4.571163   5.032032   4.693953
                    6          7          8          9         10
     6  C    0.000000
     7  O    1.352789   0.000000
     8  O    3.619603   4.200539   0.000000
     9  O    2.920490   3.080830   2.746577   0.000000
    10  O    3.634887   2.868857   5.237847   2.751182   0.000000
    11  H    4.415844   3.366532   5.165207   3.418205   2.095131
    12  H    3.870590   2.579768   5.838418   4.065808   2.084422
    13  H    3.039870   2.075009   4.012556   3.424459   3.338833
    14  H    3.721407   3.416041   2.629635   2.016765   3.397295
    15  H    3.181704   3.270348   2.076524   3.398410   4.957646
    16  H    2.136852   3.342032   2.474476   3.282985   5.215447
    17  H    1.095667   1.994991   4.530643   3.915679   4.335844
    18  O    2.437544   3.188273   3.400872   4.469537   5.790363
    19  C    4.934758   4.086369   6.634733   4.069432   1.433975
    20  H    5.289482   4.666489   6.989994   4.285258   2.040318
    21  H    5.122244   4.137333   7.276651   4.842485   2.098338
    22  H    5.713117   4.799726   6.947911   4.466969   2.100843
    23  C    3.009857   3.173179   4.249700   5.109780   5.909003
    24  H    2.766744   2.646589   4.884199   5.167588   5.457933
    25  H    3.969687   4.212267   5.021797   6.148903   6.988792
    26  H    3.447971   3.350793   3.971520   4.967435   5.797121
    27  C    4.531642   5.220630   1.439975   4.176690   6.615820
    28  H    4.983505   5.461695   2.099127   4.734342   6.947716
    29  H    4.339741   5.220920   2.114296   4.612702   6.965355
    30  H    5.401666   6.133677   2.034243   4.630813   7.239329
    31  C    2.525266   3.004047   3.428972   1.295655   2.869684
    32  O    1.596179   2.412796   3.786552   2.302319   3.272255
    33  C    3.880441   4.359409   4.489741   2.352360   3.505593
    34  H    4.606342   5.105863   4.339111   2.518522   4.147781
    35  H    4.346662   4.529192   5.277975   2.770671   2.998541
    36  H    4.091089   4.776761   5.048429   3.249424   4.282997
                   11         12         13         14         15
    11  H    0.000000
    12  H    1.787623   0.000000
    13  H    2.419711   2.420045   0.000000
    14  H    2.688765   3.834818   2.449451   0.000000
    15  H    4.378677   4.775276   2.487566   2.442157   0.000000
    16  H    5.809387   5.739944   4.297323   4.078648   2.967664
    17  H    5.288897   4.448461   3.881369   4.813664   4.069112
    18  O    5.923225   5.576110   3.791643   4.534747   2.564649
    19  C    2.729387   2.571854   4.480185   4.637809   6.330002
    20  H    3.695176   3.572875   5.341963   5.233412   6.961090
    21  H    3.145466   2.367064   4.635832   5.309137   6.721833
    22  H    2.565347   2.939794   4.748077   4.688890   6.627718
    23  C    5.685946   5.178986   3.323443   4.738671   2.698562
    24  H    5.362598   4.540071   3.119305   4.937668   3.322008
    25  H    6.734366   6.178389   4.342380   5.750436   3.546121
    26  H    5.205410   4.961458   2.798155   4.172719   2.079306
    27  C    6.413799   7.020003   4.951473   3.868893   2.566289
    28  H    6.419342   7.071229   4.814967   3.948558   2.363395
    29  H    6.959394   7.315069   5.281222   4.585576   2.936108
    30  H    7.086161   7.844199   5.868619   4.436745   3.563119
    31  C    4.175518   4.356257   4.074546   3.239009   4.126799
    32  O    4.628245   4.331288   4.021706   3.900057   4.119225
    33  C    5.090886   5.361080   5.449907   4.345714   5.516631
    34  H    5.453508   6.027411   5.898663   4.353215   5.679495
    35  H    4.770953   5.012616   5.566021   4.600857   6.071244
    36  H    6.004190   6.042469   6.153420   5.265965   6.112972
                   16         17         18         19         20
    16  H    0.000000
    17  H    2.571356   0.000000
    18  O    1.994360   2.630218   0.000000
    19  C    6.605036   5.492944   7.148330   0.000000
    20  H    6.838348   5.769821   7.623375   1.095583   0.000000
    21  H    7.006011   5.520757   7.314925   1.102642   1.792374
    22  H    7.269179   6.379351   7.780685   1.102487   1.792062
    23  C    3.322830   3.180917   1.438534   7.173358   7.815822
    24  H    3.741962   2.760013   2.117420   6.609976   7.270068
    25  H    4.015928   3.953569   2.022291   8.233342   8.874051
    26  H    3.734374   3.898783   2.119282   7.059674   7.793150
    27  C    2.951834   5.277072   3.489660   8.026515   8.406504
    28  H    3.692579   5.751058   3.685276   8.338892   8.840357
    29  H    2.494913   4.887995   2.938533   8.396780   8.741231
    30  H    3.698997   6.150463   4.515503   8.616415   8.915169
    31  C    3.027666   3.277088   4.450169   4.100145   4.084262
    32  O    2.496326   2.078641   3.722869   4.493294   4.535329
    33  C    4.169280   4.438871   5.806603   4.377721   3.993486
    34  H    4.512434   5.271653   6.259839   5.006674   4.636640
    35  H    5.040088   4.887673   6.494991   3.569120   3.022936
    36  H    4.251268   4.402472   5.966746   5.086125   4.599493
                   21         22         23         24         25
    21  H    0.000000
    22  H    1.799825   0.000000
    23  C    7.186129   7.736445   0.000000
    24  H    6.481647   7.237561   1.100402   0.000000
    25  H    8.196667   8.805303   1.094792   1.788352   0.000000
    26  H    7.135655   7.477042   1.102624   1.799180   1.780169
    27  C    8.615336   8.341307   4.362740   5.235254   4.860187
    28  H    8.875608   8.570955   4.222252   5.167359   4.632974
    29  H    8.902795   8.834049   4.002186   4.912843   4.351017
    30  H    9.297137   8.880295   5.450872   6.315749   5.919178
    31  C    4.771162   4.760147   5.252490   5.184410   6.251883
    32  O    4.900926   5.325527   4.545074   4.361949   5.481906
    33  C    5.165601   5.008677   6.696779   6.609295   7.669097
    34  H    5.910734   5.452524   7.208272   7.257103   8.169787
    35  H    4.396940   4.191280   7.222713   7.002519   8.240510
    36  H    5.747160   5.836437   6.966326   6.854806   7.864555
                   26         27         28         29         30
    26  H    0.000000
    27  C    4.093233   0.000000
    28  H    3.729407   1.102508   0.000000
    29  H    3.990655   1.101079   1.796762   0.000000
    30  H    5.179646   1.094523   1.795095   1.792510   0.000000
    31  C    5.378094   4.741727   5.453043   4.912014   5.203715
    32  O    4.907519   4.907418   5.598557   4.813892   5.532579
    33  C    6.852399   5.761643   6.580417   5.949485   6.003648
    34  H    7.258762   5.570545   6.418366   5.886882   5.624132
    35  H    7.333253   6.627396   7.359703   6.878227   6.911507
    36  H    7.279168   6.184856   7.085095   6.195152   6.415615
                   31         32         33         34         35
    31  C    0.000000
    32  O    1.283131   0.000000
    33  C    1.481006   2.370212   0.000000
    34  H    2.125291   3.206715   1.095337   0.000000
    35  H    2.088180   2.922609   1.101215   1.775548   0.000000
    36  H    2.129922   2.499203   1.093240   1.811146   1.787352
                   36
    36  H    0.000000
 Stoichiometry    C11H19O6(1+)
 Framework group  C1[X(C11H19O6)]
 Deg. of freedom   102
 Full point group                 C1      NOp   1
 Largest Abelian subgroup         C1      NOp   1
 Largest concise Abelian subgroup C1      NOp   1
                         Standard orientation:                         
 ---------------------------------------------------------------------
 Center     Atomic      Atomic             Coordinates (Angstroms)
 Number     Number       Type             X           Y           Z
 ---------------------------------------------------------------------
      1          6           0        2.097205   -1.320971   -1.111060
      2          6           0        0.612342   -1.149899   -0.817315
      3          6           0       -0.006024    0.205716   -1.140115
      4          6           0       -1.487421    0.257018   -0.766558
      5          6           0       -1.681814   -0.160253    0.723567
      6          6           0       -0.357995   -0.669000    1.315989
      7          8           0        0.392397   -1.521978    0.581567
      8          8           0       -1.959286    1.551411   -1.051957
      9          8           0        0.724047    1.341857   -0.504697
     10          8           0        2.855312   -0.391893   -0.360397
     11          1           0        2.260080   -1.197605   -2.200534
     12          1           0        2.370452   -2.359910   -0.846849
     13          1           0        0.070916   -1.888338   -1.435385
     14          1           0        0.124968    0.436635   -2.204407
     15          1           0       -1.988804   -0.493737   -1.410361
     16          1           0       -1.961114    0.743552    1.286930
     17          1           0       -0.479820   -1.085756    2.321951
     18          8           0       -2.738580   -1.066254    0.974484
     19          6           0        4.260948   -0.669015   -0.421019
     20          1           0        4.758260    0.081765    0.202930
     21          1           0        4.482067   -1.674368   -0.025808
     22          1           0        4.638068   -0.590258   -1.454003
     23          6           0       -2.656563   -2.381826    0.398354
     24          1           0       -1.815536   -2.964230    0.803771
     25          1           0       -3.596591   -2.872213    0.671188
     26          1           0       -2.588884   -2.354226   -0.701844
     27          6           0       -3.394429    1.635570   -1.134482
     28          1           0       -3.777890    0.963947   -1.920232
     29          1           0       -3.876757    1.386205   -0.176593
     30          1           0       -3.620382    2.673848   -1.396978
     31          6           0        0.943110    1.425167    0.769585
     32          8           0        0.502486    0.627206    1.672654
     33          6           0        1.790549    2.560319    1.201622
     34          1           0        1.586584    3.442269    0.584915
     35          1           0        2.837404    2.263918    1.031579
     36          1           0        1.646523    2.768747    2.265101
 ---------------------------------------------------------------------
 Rotational constants (GHZ):      0.7213353      0.3766359      0.3246890
 Leave Link  202 at Tue Oct 24 13:38:22 2017, MaxMem= 13421772800 cpu:         0.4
 (Enter /share/apps//g09/l301.exe)
 Standard basis: 6-311+G(d,p) (5D, 7F)
 Ernie: Thresh=  0.10000D-02 Tol=  0.10000D-05 Strict=F.
 There are   505 symmetry adapted cartesian basis functions of A   symmetry.
 There are   488 symmetry adapted basis functions of A   symmetry.
   488 basis functions,   764 primitive gaussians,   505 cartesian basis functions
    66 alpha electrons       66 beta electrons
       nuclear repulsion energy      1455.8760992168 Hartrees.
 IExCor= 1009 DFT=T Ex+Corr=PBE1PBE ExCW=0 ScaHFX=  0.250000
 ScaDFX=  0.750000  0.750000  1.000000  1.000000 ScalE2=  1.000000  1.000000
 IRadAn=      0 IRanWt=     -1 IRanGd=            0 ICorTp=0 IEmpDi=131
 NAtoms=   36 NActive=   36 NUniq=   36 SFac= 1.00D+00 NAtFMM=   60 NAOKFM=F Big=F
 Integral buffers will be    131072 words long.
 Raffenetti 2 integral format.
 Two-electron integral symmetry is turned on.
 R6Disp:  Grimme-D3 Dispersion energy=       -0.0257418070 Hartrees.
 Nuclear repulsion after empirical dispersion term =     1455.8503574097 Hartrees.
 Leave Link  301 at Tue Oct 24 13:38:23 2017, MaxMem= 13421772800 cpu:         0.8
 (Enter /share/apps//g09/l302.exe)
 NPDir=0 NMtPBC=     1 NCelOv=     1 NCel=       1 NClECP=     1 NCelD=      1
         NCelK=      1 NCelE2=     1 NClLst=     1 CellRange=     0.0.
 One-electron integrals computed using PRISM.
 NBasis=   488 RedAO= T EigKep=  1.29D-06  NBF=   488
 NBsUse=   488 1.00D-06 EigRej= -1.00D+00 NBFU=   488
 Precomputing XC quadrature grid using
 IXCGrd= 4 IRadAn=           0 IRanWt=          -1 IRanGd=           0 AccXCQ= 0.00D+00.
 Generated NRdTot=       0 NPtTot=           0 NUsed=           0 NTot=          32
 NSgBfM=   504   504   505   505   505 MxSgAt=    36 MxSgA2=    36.
 Leave Link  302 at Tue Oct 24 13:38:23 2017, MaxMem= 13421772800 cpu:        12.1
 (Enter /share/apps//g09/l303.exe)
 DipDrv:  MaxL=1.
 Leave Link  303 at Tue Oct 24 13:38:24 2017, MaxMem= 13421772800 cpu:         7.3
 (Enter /share/apps//g09/l401.exe)
 ExpMin= 4.38D-02 ExpMax= 8.59D+03 ExpMxC= 1.30D+03 IAcc=2 IRadAn=         4 AccDes= 0.00D+00
 Harris functional with IExCor= 1009 and IRadAn=       4 diagonalized for initial guess.
 HarFok:  IExCor= 1009 AccDes= 0.00D+00 IRadAn=         4 IDoV= 1 UseB2=F ITyADJ=14
 ICtDFT=  3500011 ScaDFX=  1.000000  1.000000  1.000000  1.000000
 FoFCou: FMM=F IPFlag=           0 FMFlag=      100000 FMFlg1=           0
         NFxFlg=           0 DoJE=T BraDBF=F KetDBF=T FulRan=T
         wScrn=  0.000000 ICntrl=     500 IOpCl=  0 I1Cent=   200000004 NGrid=           0
         NMat0=    1 NMatS0=      1 NMatT0=    0 NMatD0=    1 NMtDS0=    0 NMtDT0=    0
 Petite list used in FoFCou.
 Harris En= -881.103740596098    
 JPrj=0 DoOrth=F DoCkMO=F.
 Leave Link  401 at Tue Oct 24 13:38:26 2017, MaxMem= 13421772800 cpu:        25.9
 (Enter /share/apps//g09/l502.exe)
 Closed shell SCF:
 Using DIIS extrapolation, IDIIS=  1040.
 Integral symmetry usage will be decided dynamically.
 Keep R1 ints in memory in canonical form, NReq=7183787934.
 IVT=      797493 IEndB=      797493 NGot= 13421772800 MDV=  6302761722
 LenX=  6302761722 LenY=  6302506192
 Requested convergence on RMS density matrix=1.00D-08 within 128 cycles.
 Requested convergence on MAX density matrix=1.00D-06.
 Requested convergence on             energy=1.00D-06.
 No special actions if energy rises.
 FoFCou: FMM=F IPFlag=           0 FMFlag=           0 FMFlg1=           0
         NFxFlg=           0 DoJE=F BraDBF=F KetDBF=F FulRan=T
         wScrn=  0.000000 ICntrl=     600 IOpCl=  0 I1Cent=           0 NGrid=           0
         NMat0=    1 NMatS0= 119316 NMatT0=    0 NMatD0=    1 NMtDS0=    0 NMtDT0=    0
 Symmetry not used in FoFCou.

 Cycle   1  Pass 1  IDiag  1:
 E= -880.647240143088    
 DIIS: error= 1.25D-02 at cycle   1 NSaved=   1.
 NSaved= 1 IEnMin= 1 EnMin= -880.647240143088     IErMin= 1 ErrMin= 1.25D-02
 ErrMax= 1.25D-02  0.00D+00 EMaxC= 1.00D-01 BMatC= 3.73D-01 BMatP= 3.73D-01
 IDIUse=3 WtCom= 8.75D-01 WtEn= 1.25D-01
 Coeff-Com:  0.100D+01
 Coeff-En:   0.100D+01
 Coeff:      0.100D+01
 Gap=     0.110 Goal=   None    Shift=    0.000
 GapD=    0.110 DampG=1.000 DampE=0.500 DampFc=0.5000 IDamp=-1.
 Damping current iteration by 5.00D-01
 RMSDP=1.50D-02 MaxDP=1.40D+00              OVMax= 1.18D-01

 Cycle   2  Pass 1  IDiag  1:
 E= -880.772663762764     Delta-E=       -0.125423619676 Rises=F Damp=T
 DIIS: error= 3.56D-03 at cycle   2 NSaved=   2.
 NSaved= 2 IEnMin= 2 EnMin= -880.772663762764     IErMin= 2 ErrMin= 3.56D-03
 ErrMax= 3.56D-03  0.00D+00 EMaxC= 1.00D-01 BMatC= 2.92D-02 BMatP= 3.73D-01
 IDIUse=3 WtCom= 9.64D-01 WtEn= 3.56D-02
 Coeff-Com: -0.104D-01 0.101D+01
 Coeff-En:   0.441D-01 0.956D+00
 Coeff:     -0.846D-02 0.101D+01
 Gap=     0.229 Goal=   None    Shift=    0.000
 RMSDP=6.24D-03 MaxDP=1.06D+00 DE=-1.25D-01 OVMax= 8.32D-02

 Cycle   3  Pass 1  IDiag  1:
 E= -880.906347369101     Delta-E=       -0.133683606336 Rises=F Damp=F
 DIIS: error= 5.58D-03 at cycle   3 NSaved=   3.
 NSaved= 3 IEnMin= 3 EnMin= -880.906347369101     IErMin= 2 ErrMin= 3.56D-03
 ErrMax= 5.58D-03  0.00D+00 EMaxC= 1.00D-01 BMatC= 2.12D-02 BMatP= 2.92D-02
 IDIUse=3 WtCom= 9.44D-01 WtEn= 5.58D-02
 Coeff-Com: -0.918D-01 0.483D+00 0.609D+00
 Coeff-En:   0.000D+00 0.000D+00 0.100D+01
 Coeff:     -0.867D-01 0.456D+00 0.631D+00
 Gap=     0.204 Goal=   None    Shift=    0.000
 RMSDP=1.64D-03 MaxDP=1.53D-01 DE=-1.34D-01 OVMax= 2.35D-02

 Cycle   4  Pass 1  IDiag  1:
 E= -880.919133193974     Delta-E=       -0.012785824873 Rises=F Damp=F
 DIIS: error= 2.17D-03 at cycle   4 NSaved=   4.
 NSaved= 4 IEnMin= 4 EnMin= -880.919133193974     IErMin= 4 ErrMin= 2.17D-03
 ErrMax= 2.17D-03  0.00D+00 EMaxC= 1.00D-01 BMatC= 4.15D-03 BMatP= 2.12D-02
 IDIUse=3 WtCom= 9.78D-01 WtEn= 2.17D-02
 Coeff-Com: -0.459D-01 0.151D+00 0.357D+00 0.538D+00
 Coeff-En:   0.000D+00 0.000D+00 0.138D+00 0.862D+00
 Coeff:     -0.449D-01 0.148D+00 0.352D+00 0.545D+00
 Gap=     0.205 Goal=   None    Shift=    0.000
 RMSDP=8.66D-04 MaxDP=1.12D-01 DE=-1.28D-02 OVMax= 7.82D-03

 Cycle   5  Pass 1  IDiag  1:
 E= -880.922114965504     Delta-E=       -0.002981771530 Rises=F Damp=F
 DIIS: error= 3.78D-04 at cycle   5 NSaved=   5.
 NSaved= 5 IEnMin= 5 EnMin= -880.922114965504     IErMin= 5 ErrMin= 3.78D-04
 ErrMax= 3.78D-04  0.00D+00 EMaxC= 1.00D-01 BMatC= 1.64D-04 BMatP= 4.15D-03
 IDIUse=3 WtCom= 9.96D-01 WtEn= 3.78D-03
 Coeff-Com: -0.145D-01 0.348D-01 0.119D+00 0.250D+00 0.610D+00
 Coeff-En:   0.000D+00 0.000D+00 0.000D+00 0.000D+00 0.100D+01
 Coeff:     -0.144D-01 0.347D-01 0.118D+00 0.249D+00 0.612D+00
 Gap=     0.205 Goal=   None    Shift=    0.000
 RMSDP=1.80D-04 MaxDP=1.81D-02 DE=-2.98D-03 OVMax= 2.73D-03

 Cycle   6  Pass 1  IDiag  1:
 E= -880.922200674552     Delta-E=       -0.000085709049 Rises=F Damp=F
 DIIS: error= 1.95D-04 at cycle   6 NSaved=   6.
 NSaved= 6 IEnMin= 6 EnMin= -880.922200674552     IErMin= 6 ErrMin= 1.95D-04
 ErrMax= 1.95D-04  0.00D+00 EMaxC= 1.00D-01 BMatC= 4.50D-05 BMatP= 1.64D-04
 IDIUse=3 WtCom= 9.98D-01 WtEn= 1.95D-03
 Coeff-Com: -0.603D-02 0.109D-01 0.501D-01 0.123D+00 0.407D+00 0.415D+00
 Coeff-En:   0.000D+00 0.000D+00 0.000D+00 0.000D+00 0.199D+00 0.801D+00
 Coeff:     -0.601D-02 0.109D-01 0.500D-01 0.122D+00 0.407D+00 0.416D+00
 Gap=     0.206 Goal=   None    Shift=    0.000
 RMSDP=8.45D-05 MaxDP=1.00D-02 DE=-8.57D-05 OVMax= 1.34D-03

 Cycle   7  Pass 1  IDiag  1:
 E= -880.922232479259     Delta-E=       -0.000031804706 Rises=F Damp=F
 DIIS: error= 3.00D-05 at cycle   7 NSaved=   7.
 NSaved= 7 IEnMin= 7 EnMin= -880.922232479259     IErMin= 7 ErrMin= 3.00D-05
 ErrMax= 3.00D-05  0.00D+00 EMaxC= 1.00D-01 BMatC= 1.21D-06 BMatP= 4.50D-05
 IDIUse=1 WtCom= 1.00D+00 WtEn= 0.00D+00
 Coeff-Com: -0.187D-02 0.277D-02 0.156D-01 0.422D-01 0.159D+00 0.208D+00
 Coeff-Com:  0.574D+00
 Coeff:     -0.187D-02 0.277D-02 0.156D-01 0.422D-01 0.159D+00 0.208D+00
 Coeff:      0.574D+00
 Gap=     0.205 Goal=   None    Shift=    0.000
 RMSDP=1.73D-05 MaxDP=2.62D-03 DE=-3.18D-05 OVMax= 2.10D-04

 Cycle   8  Pass 1  IDiag  1:
 E= -880.922233392618     Delta-E=       -0.000000913359 Rises=F Damp=F
 DIIS: error= 1.14D-05 at cycle   8 NSaved=   8.
 NSaved= 8 IEnMin= 8 EnMin= -880.922233392618     IErMin= 8 ErrMin= 1.14D-05
 ErrMax= 1.14D-05  0.00D+00 EMaxC= 1.00D-01 BMatC= 1.18D-07 BMatP= 1.21D-06
 IDIUse=1 WtCom= 1.00D+00 WtEn= 0.00D+00
 Coeff-Com: -0.294D-04-0.206D-03 0.116D-03 0.256D-02 0.167D-01 0.372D-01
 Coeff-Com:  0.264D+00 0.679D+00
 Coeff:     -0.294D-04-0.206D-03 0.116D-03 0.256D-02 0.167D-01 0.372D-01
 Coeff:      0.264D+00 0.679D+00
 Gap=     0.205 Goal=   None    Shift=    0.000
 RMSDP=8.29D-06 MaxDP=1.57D-03 DE=-9.13D-07 OVMax= 5.17D-05

 Cycle   9  Pass 1  IDiag  1:
 E= -880.922233473038     Delta-E=       -0.000000080420 Rises=F Damp=F
 DIIS: error= 3.38D-06 at cycle   9 NSaved=   9.
 NSaved= 9 IEnMin= 9 EnMin= -880.922233473038     IErMin= 9 ErrMin= 3.38D-06
 ErrMax= 3.38D-06  0.00D+00 EMaxC= 1.00D-01 BMatC= 1.74D-08 BMatP= 1.18D-07
 IDIUse=1 WtCom= 1.00D+00 WtEn= 0.00D+00
 Coeff-Com:  0.706D-04-0.231D-03-0.779D-03-0.932D-03-0.674D-03 0.614D-02
 Coeff-Com:  0.100D+00 0.362D+00 0.534D+00
 Coeff:      0.706D-04-0.231D-03-0.779D-03-0.932D-03-0.674D-03 0.614D-02
 Coeff:      0.100D+00 0.362D+00 0.534D+00
 Gap=     0.205 Goal=   None    Shift=    0.000
 RMSDP=2.08D-06 MaxDP=3.22D-04 DE=-8.04D-08 OVMax= 2.44D-05

 Cycle  10  Pass 1  IDiag  1:
 E= -880.922233484944     Delta-E=       -0.000000011906 Rises=F Damp=F
 DIIS: error= 1.21D-06 at cycle  10 NSaved=  10.
 NSaved=10 IEnMin=10 EnMin= -880.922233484944     IErMin=10 ErrMin= 1.21D-06
 ErrMax= 1.21D-06  0.00D+00 EMaxC= 1.00D-01 BMatC= 1.35D-09 BMatP= 1.74D-08
 IDIUse=1 WtCom= 1.00D+00 WtEn= 0.00D+00
 Coeff-Com:  0.445D-04-0.965D-04-0.475D-03-0.914D-03-0.297D-02-0.229D-02
 Coeff-Com:  0.158D-01 0.916D-01 0.258D+00 0.641D+00
 Coeff:      0.445D-04-0.965D-04-0.475D-03-0.914D-03-0.297D-02-0.229D-02
 Coeff:      0.158D-01 0.916D-01 0.258D+00 0.641D+00
 Gap=     0.205 Goal=   None    Shift=    0.000
 RMSDP=1.06D-06 MaxDP=1.53D-04 DE=-1.19D-08 OVMax= 4.95D-06

 Cycle  11  Pass 1  IDiag  1:
 E= -880.922233486049     Delta-E=       -0.000000001105 Rises=F Damp=F
 DIIS: error= 2.10D-07 at cycle  11 NSaved=  11.
 NSaved=11 IEnMin=11 EnMin= -880.922233486049     IErMin=11 ErrMin= 2.10D-07
 ErrMax= 2.10D-07  0.00D+00 EMaxC= 1.00D-01 BMatC= 4.54D-11 BMatP= 1.35D-09
 IDIUse=1 WtCom= 1.00D+00 WtEn= 0.00D+00
 Coeff-Com:  0.112D-04-0.218D-04-0.133D-03-0.271D-03-0.993D-03-0.106D-02
 Coeff-Com:  0.936D-03 0.155D-01 0.657D-01 0.233D+00 0.688D+00
 Coeff:      0.112D-04-0.218D-04-0.133D-03-0.271D-03-0.993D-03-0.106D-02
 Coeff:      0.936D-03 0.155D-01 0.657D-01 0.233D+00 0.688D+00
 Gap=     0.205 Goal=   None    Shift=    0.000
 RMSDP=1.38D-07 MaxDP=2.33D-05 DE=-1.11D-09 OVMax= 1.58D-06

 Cycle  12  Pass 1  IDiag  1:
 E= -880.922233486065     Delta-E=       -0.000000000015 Rises=F Damp=F
 DIIS: error= 1.57D-07 at cycle  12 NSaved=  12.
 NSaved=12 IEnMin=12 EnMin= -880.922233486065     IErMin=12 ErrMin= 1.57D-07
 ErrMax= 1.57D-07  0.00D+00 EMaxC= 1.00D-01 BMatC= 1.44D-11 BMatP= 4.54D-11
 IDIUse=1 WtCom= 1.00D+00 WtEn= 0.00D+00
 Coeff-Com:  0.996D-06-0.726D-06-0.206D-04-0.478D-04-0.212D-03-0.314D-03
 Coeff-Com: -0.138D-02-0.223D-02 0.572D-02 0.555D-01 0.400D+00 0.543D+00
 Coeff:      0.996D-06-0.726D-06-0.206D-04-0.478D-04-0.212D-03-0.314D-03
 Coeff:     -0.138D-02-0.223D-02 0.572D-02 0.555D-01 0.400D+00 0.543D+00
 Gap=     0.205 Goal=   None    Shift=    0.000
 RMSDP=4.79D-08 MaxDP=5.10D-06 DE=-1.55D-11 OVMax= 6.58D-07

 Cycle  13  Pass 1  IDiag  1:
 E= -880.922233486052     Delta-E=        0.000000000013 Rises=F Damp=F
 DIIS: error= 2.21D-08 at cycle  13 NSaved=  13.
 NSaved=13 IEnMin=12 EnMin= -880.922233486065     IErMin=13 ErrMin= 2.21D-08
 ErrMax= 2.21D-08  0.00D+00 EMaxC= 1.00D-01 BMatC= 5.85D-13 BMatP= 1.44D-11
 IDIUse=1 WtCom= 1.00D+00 WtEn= 0.00D+00
 Coeff-Com: -0.483D-06 0.141D-05 0.229D-05 0.227D-05-0.147D-05-0.269D-04
 Coeff-Com: -0.633D-03-0.206D-02-0.313D-02 0.137D-02 0.945D-01 0.226D+00
 Coeff-Com:  0.684D+00
 Coeff:     -0.483D-06 0.141D-05 0.229D-05 0.227D-05-0.147D-05-0.269D-04
 Coeff:     -0.633D-03-0.206D-02-0.313D-02 0.137D-02 0.945D-01 0.226D+00
 Coeff:      0.684D+00
 Gap=     0.205 Goal=   None    Shift=    0.000
 RMSDP=1.78D-08 MaxDP=2.55D-06 DE= 1.27D-11 OVMax= 1.70D-07

 Cycle  14  Pass 1  IDiag  1:
 E= -880.922233486050     Delta-E=        0.000000000002 Rises=F Damp=F
 DIIS: error= 8.38D-09 at cycle  14 NSaved=  14.
 NSaved=14 IEnMin=12 EnMin= -880.922233486065     IErMin=14 ErrMin= 8.38D-09
 ErrMax= 8.38D-09  0.00D+00 EMaxC= 1.00D-01 BMatC= 5.81D-14 BMatP= 5.85D-13
 IDIUse=1 WtCom= 1.00D+00 WtEn= 0.00D+00
 Coeff-Com: -0.290D-06 0.711D-06 0.252D-05 0.426D-05 0.145D-04 0.102D-04
 Coeff-Com: -0.213D-03-0.834D-03-0.191D-02-0.359D-02 0.178D-01 0.713D-01
 Coeff-Com:  0.325D+00 0.593D+00
 Coeff:     -0.290D-06 0.711D-06 0.252D-05 0.426D-05 0.145D-04 0.102D-04
 Coeff:     -0.213D-03-0.834D-03-0.191D-02-0.359D-02 0.178D-01 0.713D-01
 Coeff:      0.325D+00 0.593D+00
 Gap=     0.205 Goal=   None    Shift=    0.000
 RMSDP=9.22D-09 MaxDP=1.43D-06 DE= 2.27D-12 OVMax= 3.64D-08

 Cycle  15  Pass 1  IDiag  1:
 E= -880.922233486082     Delta-E=       -0.000000000032 Rises=F Damp=F
 DIIS: error= 1.84D-09 at cycle  15 NSaved=  15.
 NSaved=15 IEnMin=15 EnMin= -880.922233486082     IErMin=15 ErrMin= 1.84D-09
 ErrMax= 1.84D-09  0.00D+00 EMaxC= 1.00D-01 BMatC= 4.07D-15 BMatP= 5.81D-14
 IDIUse=1 WtCom= 1.00D+00 WtEn= 0.00D+00
 Coeff-Com: -0.697D-07 0.157D-06 0.793D-06 0.142D-05 0.585D-05 0.633D-05
 Coeff-Com: -0.302D-04-0.145D-03-0.468D-03-0.166D-02-0.135D-02 0.806D-02
 Coeff-Com:  0.728D-01 0.253D+00 0.670D+00
 Coeff:     -0.697D-07 0.157D-06 0.793D-06 0.142D-05 0.585D-05 0.633D-05
 Coeff:     -0.302D-04-0.145D-03-0.468D-03-0.166D-02-0.135D-02 0.806D-02
 Coeff:      0.728D-01 0.253D+00 0.670D+00
 Gap=     0.205 Goal=   None    Shift=    0.000
 RMSDP=4.73D-09 MaxDP=6.26D-07 DE=-3.23D-11 OVMax= 1.46D-08

 SCF Done:  E(RPBE1PBE) =  -880.922233486     A.U. after   15 cycles
            NFock= 15  Conv=0.47D-08     -V/T= 2.0043
 KE= 8.771226396360D+02 PE=-4.954295543405D+03 EE= 1.740400312873D+03
 Leave Link  502 at Tue Oct 24 13:42:00 2017, MaxMem= 13421772800 cpu:       998.4
 (Enter /share/apps//g09/l601.exe)
 Copying SCF densities to generalized density rwf, IOpCl= 0 IROHF=0.

 **********************************************************************

            Population analysis using the SCF density.

 **********************************************************************

 Orbital symmetries:
       Occupied  (A) (A) (A) (A) (A) (A) (A) (A) (A) (A) (A) (A)
                 (A) (A) (A) (A) (A) (A) (A) (A) (A) (A) (A) (A)
                 (A) (A) (A) (A) (A) (A) (A) (A) (A) (A) (A) (A)
                 (A) (A) (A) (A) (A) (A) (A) (A) (A) (A) (A) (A)
                 (A) (A) (A) (A) (A) (A) (A) (A) (A) (A) (A) (A)
                 (A) (A) (A) (A) (A) (A)
       Virtual   (A) (A) (A) (A) (A) (A) (A) (A) (A) (A) (A) (A)
                 (A) (A) (A) (A) (A) (A) (A) (A) (A) (A) (A) (A)
                 (A) (A) (A) (A) (A) (A) (A) (A) (A) (A) (A) (A)
                 (A) (A) (A) (A) (A) (A) (A) (A) (A) (A) (A) (A)
                 (A) (A) (A) (A) (A) (A) (A) (A) (A) (A) (A) (A)
                 (A) (A) (A) (A) (A) (A) (A) (A) (A) (A) (A) (A)
                 (A) (A) (A) (A) (A) (A) (A) (A) (A) (A) (A) (A)
                 (A) (A) (A) (A) (A) (A) (A) (A) (A) (A) (A) (A)
                 (A) (A) (A) (A) (A) (A) (A) (A) (A) (A) (A) (A)
                 (A) (A) (A) (A) (A) (A) (A) (A) (A) (A) (A) (A)
                 (A) (A) (A) (A) (A) (A) (A) (A) (A) (A) (A) (A)
                 (A) (A) (A) (A) (A) (A) (A) (A) (A) (A) (A) (A)
                 (A) (A) (A) (A) (A) (A) (A) (A) (A) (A) (A) (A)
                 (A) (A) (A) (A) (A) (A) (A) (A) (A) (A) (A) (A)
                 (A) (A) (A) (A) (A) (A) (A) (A) (A) (A) (A) (A)
                 (A) (A) (A) (A) (A) (A) (A) (A) (A) (A) (A) (A)
                 (A) (A) (A) (A) (A) (A) (A) (A) (A) (A) (A) (A)
                 (A) (A) (A) (A) (A) (A) (A) (A) (A) (A) (A) (A)
                 (A) (A) (A) (A) (A) (A) (A) (A) (A) (A) (A) (A)
                 (A) (A) (A) (A) (A) (A) (A) (A) (A) (A) (A) (A)
                 (A) (A) (A) (A) (A) (A) (A) (A) (A) (A) (A) (A)
                 (A) (A) (A) (A) (A) (A) (A) (A) (A) (A) (A) (A)
                 (A) (A) (A) (A) (A) (A) (A) (A) (A) (A) (A) (A)
                 (A) (A) (A) (A) (A) (A) (A) (A) (A) (A) (A) (A)
                 (A) (A) (A) (A) (A) (A) (A) (A) (A) (A) (A) (A)
                 (A) (A) (A) (A) (A) (A) (A) (A) (A) (A) (A) (A)
                 (A) (A) (A) (A) (A) (A) (A) (A) (A) (A) (A) (A)
                 (A) (A) (A) (A) (A) (A) (A) (A) (A) (A) (A) (A)
                 (A) (A) (A) (A) (A) (A) (A) (A) (A) (A) (A) (A)
                 (A) (A) (A) (A) (A) (A) (A) (A) (A) (A) (A) (A)
                 (A) (A) (A) (A) (A) (A) (A) (A) (A) (A) (A) (A)
                 (A) (A) (A) (A) (A) (A) (A) (A) (A) (A) (A) (A)
                 (A) (A) (A) (A) (A) (A) (A) (A) (A) (A) (A) (A)
                 (A) (A) (A) (A) (A) (A) (A) (A) (A) (A) (A) (A)
                 (A) (A) (A) (A) (A) (A) (A) (A) (A) (A) (A) (A)
                 (A) (A)
 The electronic state is 1-A.
 Alpha  occ. eigenvalues --  -19.44917 -19.44260 -19.40484 -19.35661 -19.35296
 Alpha  occ. eigenvalues --  -19.34884 -10.56966 -10.51204 -10.47182 -10.45951
 Alpha  occ. eigenvalues --  -10.44339 -10.44078 -10.41971 -10.39202 -10.38562
 Alpha  occ. eigenvalues --  -10.38401 -10.38359  -1.35104  -1.28079  -1.25882
 Alpha  occ. eigenvalues --   -1.21571  -1.20264  -1.20141  -1.01434  -0.98342
 Alpha  occ. eigenvalues --   -0.94381  -0.90495  -0.87118  -0.85557  -0.83634
 Alpha  occ. eigenvalues --   -0.81770  -0.78208  -0.77899  -0.76760  -0.72404
 Alpha  occ. eigenvalues --   -0.70872  -0.67737  -0.66789  -0.66510  -0.65750
 Alpha  occ. eigenvalues --   -0.64437  -0.63436  -0.62704  -0.62059  -0.61427
 Alpha  occ. eigenvalues --   -0.60865  -0.59525  -0.58850  -0.57773  -0.57166
 Alpha  occ. eigenvalues --   -0.56491  -0.56347  -0.55277  -0.54689  -0.53935
 Alpha  occ. eigenvalues --   -0.53301  -0.52584  -0.52020  -0.49675  -0.48411
 Alpha  occ. eigenvalues --   -0.47811  -0.47393  -0.45969  -0.43633  -0.41213
 Alpha  occ. eigenvalues --   -0.40184
 Alpha virt. eigenvalues --   -0.19638  -0.12263  -0.11682  -0.10179  -0.08760
 Alpha virt. eigenvalues --   -0.08635  -0.08343  -0.07353  -0.07034  -0.06725
 Alpha virt. eigenvalues --   -0.06319  -0.05876  -0.05308  -0.04968  -0.04623
 Alpha virt. eigenvalues --   -0.03917  -0.03821  -0.03289  -0.03018  -0.02552
 Alpha virt. eigenvalues --   -0.02385  -0.01907  -0.01624  -0.01204  -0.00501
 Alpha virt. eigenvalues --   -0.00295   0.00100   0.00665   0.00938   0.02042
 Alpha virt. eigenvalues --    0.02223   0.02405   0.02997   0.03356   0.03546
 Alpha virt. eigenvalues --    0.03996   0.04305   0.04579   0.04841   0.05064
 Alpha virt. eigenvalues --    0.05686   0.06085   0.06307   0.06570   0.06758
 Alpha virt. eigenvalues --    0.07140   0.07877   0.08068   0.08205   0.08949
 Alpha virt. eigenvalues --    0.09097   0.09318   0.09967   0.10045   0.10443
 Alpha virt. eigenvalues --    0.10752   0.11335   0.11612   0.12291   0.12769
 Alpha virt. eigenvalues --    0.12982   0.13283   0.13909   0.13980   0.14559
 Alpha virt. eigenvalues --    0.15332   0.15441   0.15571   0.15818   0.15978
 Alpha virt. eigenvalues --    0.16643   0.16943   0.17417   0.18249   0.18509
 Alpha virt. eigenvalues --    0.19337   0.19790   0.20121   0.20415   0.20688
 Alpha virt. eigenvalues --    0.21388   0.22619   0.22800   0.22998   0.23494
 Alpha virt. eigenvalues --    0.23823   0.24168   0.24752   0.24975   0.25289
 Alpha virt. eigenvalues --    0.25918   0.26724   0.27248   0.27578   0.27896
 Alpha virt. eigenvalues --    0.28768   0.29072   0.29329   0.30086   0.30747
 Alpha virt. eigenvalues --    0.32091   0.32545   0.33400   0.34162   0.34430
 Alpha virt. eigenvalues --    0.36204   0.36761   0.37450   0.38394   0.38891
 Alpha virt. eigenvalues --    0.39208   0.39801   0.40532   0.42194   0.43142
 Alpha virt. eigenvalues --    0.43511   0.43911   0.44424   0.45798   0.46539
 Alpha virt. eigenvalues --    0.47086   0.47373   0.47668   0.48711   0.49742
 Alpha virt. eigenvalues --    0.50456   0.51448   0.52086   0.52667   0.53521
 Alpha virt. eigenvalues --    0.53612   0.54849   0.55147   0.55751   0.56249
 Alpha virt. eigenvalues --    0.57125   0.57407   0.57676   0.58062   0.58792
 Alpha virt. eigenvalues --    0.59352   0.60081   0.60691   0.61424   0.61898
 Alpha virt. eigenvalues --    0.62381   0.62789   0.64137   0.64788   0.66074
 Alpha virt. eigenvalues --    0.66902   0.67283   0.67863   0.69123   0.70343
 Alpha virt. eigenvalues --    0.71008   0.74928   0.77747   0.80303   0.81949
 Alpha virt. eigenvalues --    0.83631   0.85477   0.86788   0.87011   0.89113
 Alpha virt. eigenvalues --    0.90731   0.93370   0.93650   0.94493   0.95815
 Alpha virt. eigenvalues --    0.96651   0.97671   0.98138   0.99043   1.00215
 Alpha virt. eigenvalues --    1.00955   1.02588   1.03557   1.05588   1.07136
 Alpha virt. eigenvalues --    1.08691   1.11004   1.11387   1.12437   1.13559
 Alpha virt. eigenvalues --    1.15795   1.17484   1.17847   1.18699   1.19086
 Alpha virt. eigenvalues --    1.21770   1.22356   1.23133   1.24237   1.26148
 Alpha virt. eigenvalues --    1.26959   1.28079   1.29291   1.29690   1.30696
 Alpha virt. eigenvalues --    1.31208   1.33320   1.33495   1.34622   1.35074
 Alpha virt. eigenvalues --    1.35769   1.36785   1.39569   1.40063   1.40333
 Alpha virt. eigenvalues --    1.42279   1.42953   1.43966   1.44843   1.45162
 Alpha virt. eigenvalues --    1.45406   1.46300   1.46689   1.47401   1.47998
 Alpha virt. eigenvalues --    1.48479   1.48675   1.49275   1.49655   1.50808
 Alpha virt. eigenvalues --    1.51652   1.52791   1.53503   1.54026   1.54445
 Alpha virt. eigenvalues --    1.55228   1.56235   1.57577   1.58247   1.58972
 Alpha virt. eigenvalues --    1.59665   1.60805   1.61587   1.63054   1.63909
 Alpha virt. eigenvalues --    1.64498   1.64864   1.66289   1.67025   1.68377
 Alpha virt. eigenvalues --    1.69996   1.71353   1.71526   1.72459   1.74075
 Alpha virt. eigenvalues --    1.75125   1.77065   1.77368   1.78842   1.81673
 Alpha virt. eigenvalues --    1.82794   1.83092   1.85610   1.87149   1.88024
 Alpha virt. eigenvalues --    1.89475   1.89790   1.91753   1.93925   1.94828
 Alpha virt. eigenvalues --    1.95965   1.97044   1.99573   2.00015   2.01832
 Alpha virt. eigenvalues --    2.02679   2.04559   2.04873   2.07139   2.07865
 Alpha virt. eigenvalues --    2.08383   2.09546   2.11349   2.13167   2.13685
 Alpha virt. eigenvalues --    2.15040   2.17373   2.17491   2.19236   2.21285
 Alpha virt. eigenvalues --    2.23673   2.32389   2.32796   2.33941   2.34141
 Alpha virt. eigenvalues --    2.35205   2.36907   2.38188   2.38864   2.40605
 Alpha virt. eigenvalues --    2.41349   2.41937   2.42521   2.42693   2.43866
 Alpha virt. eigenvalues --    2.44113   2.45602   2.46054   2.46829   2.47325
 Alpha virt. eigenvalues --    2.48336   2.49470   2.50421   2.50711   2.52178
 Alpha virt. eigenvalues --    2.54793   2.58444   2.60193   2.60543   2.62389
 Alpha virt. eigenvalues --    2.63968   2.65660   2.68531   2.69459   2.71268
 Alpha virt. eigenvalues --    2.72339   2.73650   2.75376   2.76836   2.77474
 Alpha virt. eigenvalues --    2.78529   2.81496   2.83028   2.85525   2.86135
 Alpha virt. eigenvalues --    2.87970   2.89332   2.90939   2.92216   2.93761
 Alpha virt. eigenvalues --    2.95129   2.97000   2.97399   2.99985   3.00292
 Alpha virt. eigenvalues --    3.01423   3.02204   3.05176   3.06849   3.08698
 Alpha virt. eigenvalues --    3.09111   3.09410   3.11161   3.11993   3.14068
 Alpha virt. eigenvalues --    3.14895   3.15988   3.17453   3.20163   3.20652
 Alpha virt. eigenvalues --    3.21262   3.28378   3.30899   3.34812   3.37944
 Alpha virt. eigenvalues --    3.50087   3.62139   3.66867   3.67064   3.67519
 Alpha virt. eigenvalues --    3.68588   3.69093   3.69774   3.70338   3.71351
 Alpha virt. eigenvalues --    3.73482   3.79888   3.80986   3.86136   3.89109
 Alpha virt. eigenvalues --    3.93781   3.95444   3.97794   3.98558   4.02989
 Alpha virt. eigenvalues --    4.05244   4.07647   4.11434   4.11874   4.15841
 Alpha virt. eigenvalues --    4.19093   4.23192   4.94987   4.96955   5.01603
 Alpha virt. eigenvalues --    5.02408   5.04755   5.07870   5.15455   5.21779
 Alpha virt. eigenvalues --    5.27757   5.29666   5.33961   5.37537   5.48125
 Alpha virt. eigenvalues --    5.57545   5.58225   5.60630   5.64389   5.83577
 Alpha virt. eigenvalues --   23.68770  23.73676  23.75226  23.77254  23.77774
 Alpha virt. eigenvalues --   23.81766  23.88460  23.89710  23.90427  23.91244
 Alpha virt. eigenvalues --   23.91515  49.89404  49.90663  49.94783  49.96453
 Alpha virt. eigenvalues --   49.97880  50.00628
          Condensed to atoms (all electrons):
               1          2          3          4          5          6
     1  C   10.039356  -3.548610   2.372481  -2.691177   0.306154  -0.081119
     2  C   -3.548610  14.712246  -8.021170   3.658299   0.448561  -1.765043
     3  C    2.372481  -8.021170  20.408104 -11.124347   3.164234  -1.352971
     4  C   -2.691177   3.658299 -11.124347  20.897509  -8.984085   4.949684
     5  C    0.306154   0.448561   3.164234  -8.984085  20.531079  -9.080616
     6  C   -0.081119  -1.765043  -1.352971   4.949684  -9.080616  14.031586
     7  O   -0.262169   0.345021  -0.132584   0.113113  -0.138509   0.327050
     8  O    0.022816  -0.052164   0.094485   0.152553  -0.178994  -0.024498
     9  O   -0.139302   0.260832  -0.377942   0.408556  -0.259064   0.199101
    10  O    0.084608  -0.194454   0.175813  -0.041993  -0.012460   0.013201
    11  H    0.419657  -0.020421  -0.027296  -0.008287  -0.004184  -0.001152
    12  H    0.354764  -0.007466   0.033593   0.002836   0.005844  -0.009542
    13  H   -0.005426   0.232061   0.160906  -0.099293  -0.010002   0.018478
    14  H    0.052222  -0.041076   0.458727  -0.103096   0.035324  -0.019720
    15  H   -0.005471  -0.084903   0.091378   0.340053  -0.026763  -0.008322
    16  H   -0.009039  -0.048151   0.023398   0.023792   0.239211   0.066591
    17  H    0.022216  -0.009037   0.098028  -0.165889   0.142731   0.228508
    18  O    0.020417  -0.042463   0.143101  -0.158192   0.230367   0.000270
    19  C   -0.024991  -0.118169   0.013871  -0.017248   0.014399  -0.013553
    20  H    0.005745   0.019941  -0.003969   0.000212  -0.000529   0.000086
    21  H    0.012587  -0.027246  -0.000338   0.000011  -0.001142   0.003451
    22  H   -0.001508  -0.003427   0.005157  -0.001523   0.000450  -0.001661
    23  C   -0.065250  -0.166945  -0.005267   0.136861  -0.543170   0.180949
    24  H   -0.000688   0.009069   0.019372  -0.010305   0.015385  -0.028047
    25  H   -0.001570  -0.004747  -0.001587   0.015700  -0.012323   0.016660
    26  H    0.021202   0.019595  -0.016423  -0.050244   0.015229   0.015662
    27  C   -0.060843  -0.070901  -0.155884  -0.133285  -0.079147   0.031477
    28  H    0.000082  -0.006655   0.048795  -0.014222  -0.021530   0.002535
    29  H    0.000226   0.002824  -0.014444  -0.097475   0.072898  -0.006845
    30  H    0.000133   0.000164  -0.008895   0.053926  -0.000601  -0.001077
    31  C    0.130753   0.619144  -0.279454  -0.806227   0.649137  -1.459775
    32  O   -0.043520   0.017067   0.018225  -0.010037   0.147669   0.027102
    33  C   -0.011036  -0.060163   0.193899  -0.170229  -0.134210  -0.005337
    34  H    0.001984   0.002110  -0.003194  -0.000361   0.000934   0.000739
    35  H   -0.003930  -0.002681   0.004488  -0.001169   0.003824  -0.003648
    36  H    0.000966  -0.000351   0.001479  -0.003812  -0.001095  -0.003957
               7          8          9         10         11         12
     1  C   -0.262169   0.022816  -0.139302   0.084608   0.419657   0.354764
     2  C    0.345021  -0.052164   0.260832  -0.194454  -0.020421  -0.007466
     3  C   -0.132584   0.094485  -0.377942   0.175813  -0.027296   0.033593
     4  C    0.113113   0.152553   0.408556  -0.041993  -0.008287   0.002836
     5  C   -0.138509  -0.178994  -0.259064  -0.012460  -0.004184   0.005844
     6  C    0.327050  -0.024498   0.199101   0.013201  -0.001152  -0.009542
     7  O    7.792672  -0.004387   0.033738   0.018499   0.018390  -0.024288
     8  O   -0.004387   7.940320   0.001507   0.001752   0.000014   0.000037
     9  O    0.033738   0.001507   7.846875   0.001305   0.001531  -0.001429
    10  O    0.018499   0.001752   0.001305   8.260594  -0.057688  -0.047063
    11  H    0.018390   0.000014   0.001531  -0.057688   0.520064  -0.041814
    12  H   -0.024288   0.000037  -0.001429  -0.047063  -0.041814   0.507176
    13  H   -0.049082   0.001989   0.002320   0.010906  -0.004088  -0.003424
    14  H    0.004828   0.004389  -0.064792  -0.003513   0.002414  -0.000040
    15  H   -0.001560  -0.021583   0.002782   0.000051   0.000073  -0.000047
    16  H    0.009748  -0.002916   0.006269  -0.000041   0.000003  -0.000006
    17  H   -0.063105   0.001345  -0.008401   0.000585   0.000013  -0.000023
    18  O   -0.010826   0.005489  -0.006122   0.000310   0.000042  -0.000093
    19  C   -0.009050   0.000210  -0.002782   0.071317  -0.006448   0.001457
    20  H   -0.000109   0.000002  -0.000561  -0.054530  -0.000403   0.000050
    21  H   -0.000432   0.000000  -0.000593  -0.060371  -0.003315   0.013908
    22  H    0.000286   0.000001   0.000106  -0.048717   0.009635  -0.003847
    23  C    0.018848   0.011841  -0.003283   0.001597   0.000285  -0.000711
    24  H    0.005422  -0.000418   0.000435   0.000064   0.000004   0.000084
    25  H    0.000692  -0.000171   0.000003  -0.000001  -0.000000   0.000001
    26  H   -0.005409   0.003246  -0.000854   0.000032  -0.000000   0.000012
    27  C   -0.000494   0.161822   0.003597  -0.000068  -0.000235   0.000061
    28  H   -0.000030  -0.041779   0.000092  -0.000004  -0.000000  -0.000000
    29  H   -0.000078  -0.021051  -0.000392   0.000002   0.000000   0.000000
    30  H   -0.000023  -0.069341  -0.000290   0.000002   0.000000   0.000000
    31  C   -0.025106   0.021290   0.307054   0.103748   0.002368   0.001735
    32  O   -0.031715   0.009406  -0.103651   0.008783  -0.000599   0.000868
    33  C   -0.055302   0.007872  -0.393453  -0.121324  -0.001546  -0.001607
    34  H    0.000021   0.000052  -0.014647   0.000474  -0.000002  -0.000002
    35  H   -0.000076   0.000010   0.001693   0.000122   0.000046   0.000021
    36  H    0.000107   0.000071   0.015887   0.000264  -0.000001   0.000003
              13         14         15         16         17         18
     1  C   -0.005426   0.052222  -0.005471  -0.009039   0.022216   0.020417
     2  C    0.232061  -0.041076  -0.084903  -0.048151  -0.009037  -0.042463
     3  C    0.160906   0.458727   0.091378   0.023398   0.098028   0.143101
     4  C   -0.099293  -0.103096   0.340053   0.023792  -0.165889  -0.158192
     5  C   -0.010002   0.035324  -0.026763   0.239211   0.142731   0.230367
     6  C    0.018478  -0.019720  -0.008322   0.066591   0.228508   0.000270
     7  O   -0.049082   0.004828  -0.001560   0.009748  -0.063105  -0.010826
     8  O    0.001989   0.004389  -0.021583  -0.002916   0.001345   0.005489
     9  O    0.002320  -0.064792   0.002782   0.006269  -0.008401  -0.006122
    10  O    0.010906  -0.003513   0.000051  -0.000041   0.000585   0.000310
    11  H   -0.004088   0.002414   0.000073   0.000003   0.000013   0.000042
    12  H   -0.003424  -0.000040  -0.000047  -0.000006  -0.000023  -0.000093
    13  H    0.473087  -0.004378   0.006596   0.000267   0.000483   0.003456
    14  H   -0.004378   0.425805  -0.007543  -0.000232   0.000103   0.000057
    15  H    0.006596  -0.007543   0.464116   0.002110   0.000280  -0.013483
    16  H    0.000267  -0.000232   0.002110   0.438552  -0.003484  -0.054621
    17  H    0.000483   0.000103   0.000280  -0.003484   0.446137   0.006039
    18  O    0.003456   0.000057  -0.013483  -0.054621   0.006039   7.796593
    19  C   -0.000440   0.000461   0.000005  -0.000194   0.000043  -0.000075
    20  H    0.000016  -0.000000   0.000000   0.000000   0.000002   0.000000
    21  H   -0.000004   0.000008  -0.000000   0.000000  -0.000006  -0.000001
    22  H   -0.000021  -0.000023  -0.000000   0.000000   0.000001   0.000000
    23  C    0.007447  -0.000586   0.001416   0.022761  -0.006610   0.157843
    24  H    0.000002  -0.000041  -0.000277  -0.000398   0.000971  -0.042064
    25  H   -0.000073  -0.000007  -0.000290   0.000122  -0.000394  -0.059134
    26  H    0.000134   0.000431   0.005458   0.000073   0.000342  -0.033562
    27  C    0.003248  -0.007485   0.031485   0.017799  -0.000801  -0.023249
    28  H    0.000013  -0.000427   0.012835  -0.000074  -0.000009  -0.001353
    29  H    0.000003   0.000142  -0.003437   0.001698   0.000059  -0.003370
    30  H   -0.000003  -0.000026  -0.000590  -0.000650  -0.000000   0.000119
    31  C    0.001165   0.019303   0.004093  -0.018658   0.064060   0.007778
    32  O   -0.001671  -0.003831  -0.000053   0.012171  -0.055034  -0.001707
    33  C    0.004902   0.002407   0.002714  -0.017546   0.018030   0.004788
    34  H   -0.000000   0.000006   0.000005   0.000034   0.000012  -0.000011
    35  H    0.000004   0.000021  -0.000000  -0.000017  -0.000000  -0.000004
    36  H   -0.000001   0.000013  -0.000001   0.000077   0.000043   0.000016
              19         20         21         22         23         24
     1  C   -0.024991   0.005745   0.012587  -0.001508  -0.065250  -0.000688
     2  C   -0.118169   0.019941  -0.027246  -0.003427  -0.166945   0.009069
     3  C    0.013871  -0.003969  -0.000338   0.005157  -0.005267   0.019372
     4  C   -0.017248   0.000212   0.000011  -0.001523   0.136861  -0.010305
     5  C    0.014399  -0.000529  -0.001142   0.000450  -0.543170   0.015385
     6  C   -0.013553   0.000086   0.003451  -0.001661   0.180949  -0.028047
     7  O   -0.009050  -0.000109  -0.000432   0.000286   0.018848   0.005422
     8  O    0.000210   0.000002   0.000000   0.000001   0.011841  -0.000418
     9  O   -0.002782  -0.000561  -0.000593   0.000106  -0.003283   0.000435
    10  O    0.071317  -0.054530  -0.060371  -0.048717   0.001597   0.000064
    11  H   -0.006448  -0.000403  -0.003315   0.009635   0.000285   0.000004
    12  H    0.001457   0.000050   0.013908  -0.003847  -0.000711   0.000084
    13  H   -0.000440   0.000016  -0.000004  -0.000021   0.007447   0.000002
    14  H    0.000461  -0.000000   0.000008  -0.000023  -0.000586  -0.000041
    15  H    0.000005   0.000000  -0.000000  -0.000000   0.001416  -0.000277
    16  H   -0.000194   0.000000   0.000000   0.000000   0.022761  -0.000398
    17  H    0.000043   0.000002  -0.000006   0.000001  -0.006610   0.000971
    18  O   -0.000075   0.000000  -0.000001   0.000000   0.157843  -0.042064
    19  C    5.134974   0.400560   0.431896   0.413508  -0.000764   0.000046
    20  H    0.400560   0.496504  -0.020155  -0.023796   0.000005   0.000000
    21  H    0.431896  -0.020155   0.517641  -0.039278  -0.000005   0.000001
    22  H    0.413508  -0.023796  -0.039278   0.518932  -0.000005   0.000000
    23  C   -0.000764   0.000005  -0.000005  -0.000005   5.425001   0.391606
    24  H    0.000046   0.000000   0.000001   0.000000   0.391606   0.513865
    25  H   -0.000004   0.000000   0.000000   0.000000   0.419887  -0.019825
    26  H    0.000042   0.000000   0.000000   0.000000   0.364675  -0.044899
    27  C   -0.000164   0.000001  -0.000002  -0.000005   0.032182  -0.001557
    28  H    0.000003  -0.000000  -0.000000  -0.000000   0.000500   0.000005
    29  H    0.000000   0.000000  -0.000000   0.000000  -0.001499  -0.000064
    30  H    0.000002   0.000000   0.000000   0.000000  -0.000279   0.000001
    31  C   -0.009620   0.007027  -0.001169   0.001771  -0.055865  -0.000019
    32  O   -0.002179  -0.000087   0.000071  -0.000103   0.009808   0.000242
    33  C    0.004237  -0.004086   0.000212  -0.001683  -0.006569  -0.000311
    34  H   -0.000360   0.000016   0.000001   0.000007   0.000024   0.000000
    35  H    0.001627   0.000688  -0.000095  -0.000147  -0.000017  -0.000000
    36  H    0.000067  -0.000008   0.000002   0.000000  -0.000012   0.000000
              25         26         27         28         29         30
     1  C   -0.001570   0.021202  -0.060843   0.000082   0.000226   0.000133
     2  C   -0.004747   0.019595  -0.070901  -0.006655   0.002824   0.000164
     3  C   -0.001587  -0.016423  -0.155884   0.048795  -0.014444  -0.008895
     4  C    0.015700  -0.050244  -0.133285  -0.014222  -0.097475   0.053926
     5  C   -0.012323   0.015229  -0.079147  -0.021530   0.072898  -0.000601
[...]
 0.00580887,-0.00021901,-0.00139524,0.00186636,-0.00026045,0.00053003,-
 0.00074318,-0.00046877,0.00030266,-0.00040966,0.00006582,0.00000666,-0
 .00019955,-0.00078166,0.00010356,0.00143184,-0.00015726,-0.00030503,0.
 00013697,0.00006941,-0.00009190,-0.00017101,0.00033102,-0.00010215,-0.
 00055585,-0.00289591,0.00206498,-0.00169079,0.00024769,-0.00048782,0.0
 0044713,0.00037901,-0.00061812,0.00019556,0.00026304,-0.00005312,0.000
 14608,-0.14913683,0.07402541,0.72611404,0.00003171,0.00030320,0.000287
 55,0.00131356,-0.00939828,-0.00866046,-0.00579499,0.00067170,0.0026201
 3,0.00058949,0.00031394,-0.00052934,0.00354525,0.00434879,-0.00474154,
 -0.03407237,0.01292787,-0.00747196,-0.04808206,-0.01923113,0.04127864,
 0.00077458,-0.00011342,0.00008723,0.03337351,-0.00383732,-0.00780694,-
 0.00223049,0.00345969,-0.00034030,-0.00031476,0.00043341,-0.00003782,0
 .00039419,-0.00019865,0.00011360,0.00061059,0.00161443,0.00143903,0.00
 095563,0.00047737,-0.00040847,-0.00037654,0.00056547,-0.00035572,0.001
 83914,0.00071245,-0.00078655,-0.00154596,-0.00793222,0.00799385,0.0016
 7173,0.00257188,-0.00247933,0.00043030,-0.00025910,0.00139930,-0.00006
 655,-0.00003969,-0.00024509,0.00002949,0.00002111,-0.00003782,-0.00034
 544,0.00020915,-0.00021452,-0.00194126,-0.00050437,-0.00017851,0.00033
 547,0.00049939,0.00025765,0.00044214,0.00005262,0.00007029,0.00006602,
 -0.00002104,-0.00026154,0.00010479,-0.00002975,0.00017592,0.00001185,0
 .00000680,-0.00006532,-0.00004398,-0.00003000,0.00002530,0.00000878,-0
 .00000043,0.00003590,-0.09363049,-0.07967369,0.01465970,0.13923935,-0.
 00106931,-0.00021714,0.00399142,0.00072321,-0.00925820,-0.01354176,-0.
 01205303,-0.00664727,0.02393263,0.00270504,-0.00150161,-0.00248897,-0.
 01212849,-0.01873158,0.00461433,0.04227109,-0.05238803,-0.02123035,-0.
 03579498,0.02010680,0.01829359,0.00063785,0.00300464,0.00080204,0.0028
 2887,-0.05299715,-0.07557497,0.00410805,0.00211494,0.00000425,-0.00056
 456,0.00100127,-0.00099609,0.00093279,-0.00024662,0.00013707,0.0012433
 9,0.00223445,0.00199343,0.00133878,0.00158463,-0.00126061,-0.00133798,
 0.00147499,-0.00037128,-0.00177381,-0.00074416,0.00053353,-0.01452715,
 -0.02463828,0.03005321,0.00348240,-0.00124908,0.01276443,-0.00030228,-
 0.00028355,-0.00081532,-0.00018920,0.00002548,-0.00041309,0.00046503,0
 .00002182,0.00006991,0.00012488,-0.00006389,0.00013096,0.00358226,0.00
 077261,-0.00268626,0.00010051,0.00078132,-0.00069898,-0.00021038,-0.00
 010780,0.00033215,-0.00059677,0.00021274,0.00052083,0.00106484,-0.0008
 9438,0.00017670,-0.00013564,0.00013990,-0.00018833,-0.00047881,0.00034
 348,-0.00000607,-0.00003082,0.00012712,0.00008592,-0.08638768,-0.40817
 828,-0.04668137,0.11945034,0.59392814,-0.00002030,0.00053350,-0.002125
 09,-0.00119598,0.00370193,0.00159520,-0.00317903,-0.00223655,0.0048878
 4,0.00103469,-0.00130729,0.00163914,0.01381789,0.03107623,-0.01663413,
 -0.01109850,-0.00242049,-0.08651861,0.03375317,0.00530043,-0.01070601,
 -0.00077040,-0.00005309,-0.00030940,-0.00422170,-0.06705519,-0.0147364
 9,-0.00082840,-0.00003894,0.00223901,-0.00008079,-0.00019362,0.0004662
 9,-0.00019488,0.00003133,0.00016653,-0.00012036,-0.00045053,-0.0004648
 9,0.00002695,0.00008936,0.00036302,-0.00006273,0.00054819,0.00046863,0
 .00049621,0.00069840,0.00006664,-0.00176527,-0.00415337,0.00592617,-0.
 00490666,0.00276172,-0.00793457,-0.00004019,0.00025305,-0.00026588,0.0
 0007865,-0.00019203,0.00020536,0.00005453,-0.00005736,0.00000580,-0.00
 004287,0.00006350,0.00003484,-0.00253889,-0.00078890,0.00092452,0.0003
 9054,-0.00030610,0.00016617,0.00027700,0.00009349,-0.00016761,0.000432
 42,-0.00001308,-0.00004809,0.00015675,0.00000196,0.00030973,-0.0000152
 6,0.00007289,0.00001195,0.00011585,0.00004422,-0.00011880,-0.00003335,
 -0.00007011,-0.00007481,0.00687801,-0.06374610,-0.14253378,-0.03667728
 ,0.06639114,0.25360994,-0.00017285,0.00023305,-0.00029828,0.00021360,0
 .00085188,-0.00060333,0.00513195,-0.00202521,0.00131720,-0.00089324,-0
 .00013569,0.00113296,-0.00107217,-0.00098860,0.00033156,0.00699308,-0.
 00131259,0.00218385,0.00121185,0.00056834,-0.00171269,0.00000535,0.000
 10825,-0.00019663,0.00289375,-0.00384743,0.01283033,-0.00075255,-0.000
 20281,0.00086536,-0.00005688,0.00001254,0.00008178,-0.00003765,-0.0000
 3368,0.00008848,0.00002427,0.00004336,0.00008525,0.00018287,0.00011681
 ,-0.00016945,0.00022258,-0.00026457,-0.00000603,0.00003998,-0.00010953
 ,0.00003408,-0.00012160,0.00012010,0.00002599,0.00028018,-0.00028842,0
 .00061053,0.00020653,-0.00012132,0.00020375,-0.00002480,-0.00006911,0.
 00000571,-0.00000388,0.00002541,-0.00004379,-0.00004499,0.00001624,0.0
 0001282,0.00019358,0.00007338,-0.00009964,-0.00001677,0.00000461,-0.00
 003541,-0.00001687,-0.00000514,0.00000080,-0.00001308,0.00001365,0.000
 02050,0.00003155,-0.00001666,0.00005950,0.00001506,0.00000269,-0.00002
 510,-0.00001769,-0.00000860,0.00001190,0.00000446,0.00000837,0.0000102
 9,-0.11589398,-0.04009500,0.04991282,0.00499048,-0.01298625,0.00936041
 ,0.55135982,0.00001532,0.00009120,0.00047101,-0.00009157,-0.00156414,-
 0.00100445,-0.00243796,0.00065480,-0.00424041,0.00083449,-0.00035492,-
 0.00113503,-0.00090799,-0.00035190,-0.00037953,0.00565547,0.00521552,-
 0.00784219,-0.00388596,0.00108136,0.00257236,0.00024858,0.00019770,0.0
 0040820,0.00603782,0.01504073,-0.00983071,-0.00012849,0.00038423,-0.00
 010596,-0.00009633,0.00008941,-0.00000900,0.00007009,-0.00003130,-0.00
 002448,-0.00001345,0.00011864,0.00021377,0.00034610,0.00034421,-0.0004
 7090,-0.00029279,0.00031637,-0.00004496,-0.00010343,0.00004420,-0.0000
 1349,-0.00025158,-0.00054257,0.00081764,0.00016144,-0.00052538,0.00104
 341,0.00019247,-0.00030780,0.00047488,0.00008945,-0.00008770,-0.000111
 10,-0.00000759,0.00002647,-0.00002685,-0.00008737,0.00005967,-0.000015
 96,0.00035838,0.00007718,-0.00029573,-0.00001061,0.00008538,-0.0000207
 2,-0.00001044,-0.00001970,0.00004094,-0.00005798,0.00002447,0.00003283
 ,-0.00012659,0.00004821,-0.00019157,-0.00000687,-0.00003068,0.00004081
 ,-0.00003577,0.00000394,0.00000119,0.00001058,0.00001443,0.00000773,-0
 .03314737,-0.12217189,0.05928790,-0.02367066,-0.04726920,0.02564879,0.
 00075613,0.56159237,-0.00004538,0.00033052,-0.00016322,0.00029825,-0.0
 0004704,-0.00154731,-0.00277320,-0.00398486,0.00484060,0.00090745,0.00
 014919,-0.00043291,-0.00080236,-0.00102821,-0.00025013,0.00343407,-0.0
 0350843,0.00088491,-0.00034616,0.00098978,-0.00007568,-0.00037259,0.00
 020377,-0.00011376,0.02320853,0.01333835,-0.04870990,0.00028448,-0.000
 08937,0.00033865,-0.00008671,0.00004243,0.00006704,0.00003331,-0.00001
 225,0.00007874,0.00031945,0.00016489,0.00022898,0.00047716,0.00049810,
 -0.00068937,-0.00029243,0.00024005,-0.00011560,-0.00001196,0.00001917,
 0.00008476,-0.00024550,-0.00033740,0.00048623,0.00024150,0.00003614,0.
 00059085,-0.00018400,0.00026691,-0.00055713,-0.00000781,-0.00008681,0.
 00013706,0.00003718,-0.00003001,0.00005770,-0.00000761,-0.00003067,0.0
 0006564,0.00010547,-0.00001387,-0.00015043,0.00000654,0.00001511,-0.00
 002198,-0.00001654,0.00001479,0.00001563,-0.00003072,0.00001316,0.0000
 6876,0.00018942,-0.00018685,0.00018970,-0.00000394,0.00002575,-0.00001
 704,-0.00002080,0.00004524,-0.00001227,-0.00003257,0.00000716,-0.00002
 295,0.04591371,0.06611048,-0.16176985,-0.00008957,-0.00094050,0.011828
 62,-0.00980863,0.06410161,0.56639687,-0.00006285,0.00004743,-0.0000763
 2,0.00002267,-0.00002633,-0.00028844,0.00012635,-0.00014409,0.00055474
 ,0.00009387,-0.00002381,-0.00000567,-0.00005674,-0.00010823,-0.0000194
 3,0.00065686,0.00028061,-0.00046696,-0.00013167,0.00012064,0.00008351,
 -0.00009121,0.00004574,-0.00001922,0.00129715,0.00052580,0.00007751,-0
 .00013156,0.00004958,0.00027597,-0.00004130,-0.00000302,0.00004263,-0.
 00000605,-0.00000256,0.00002555,0.00005882,0.00002778,0.00003349,0.000
 02346,0.00000611,-0.00001322,-0.00003534,0.00001621,-0.00001527,-0.000
 02425,-0.00000043,0.00000567,-0.00002021,-0.00003009,0.00006127,-0.000
 00976,-0.00001620,0.00008142,0.00007712,-0.00005413,0.00003386,0.00003
 960,-0.00005067,0.00000634,-0.00000750,0.00001619,-0.00000078,-0.00004
 604,0.00001182,0.00001473,0.00004197,0.00000703,-0.00001645,-0.0000042
 3,0.00000126,-0.00000483,-0.00000391,0.00000035,0.00000297,-0.00000664
 ,0.00000197,0.00001006,0.00004433,-0.00002148,0.00002625,-0.00000884,0
 .00000342,0.00000088,-0.00000129,0.00001649,-0.00000609,-0.00000336,-0
 .00000181,-0.00001738,-0.01007397,-0.00400420,-0.00778674,-0.00023466,
 -0.00088641,0.00120729,-0.18345995,-0.12065480,-0.07233396,0.19601812,
 -0.00000955,0.00005164,0.00006416,0.00011695,-0.00004421,-0.00042931,0
 .00018549,-0.00042694,0.00117416,-0.00008184,-0.00005843,0.00000174,-0
 .00033691,-0.00031758,-0.00003132,0.00089501,-0.00003408,-0.00031880,-
 0.00037112,0.00022780,0.00013860,0.00003879,0.00010463,-0.00017549,0.0
 0197100,0.00034237,-0.00331183,0.00022501,-0.00007528,-0.00007076,0.00
 000637,0.00001273,-0.00003653,0.00002782,-0.00000532,-0.00000079,0.000
 08098,0.00006988,0.00005155,0.00004275,0.00005564,-0.00006516,-0.00000
 406,0.00002827,-0.00003227,0.00002631,-0.00005087,0.00000637,-0.000048
 19,-0.00009302,0.00012076,0.00016011,0.00003592,0.00014279,-0.00011497
 ,0.00009378,-0.00006327,-0.00004638,0.00004215,-0.00001228,0.00002486,
 -0.00001036,-0.00000165,0.00004461,-0.00001436,-0.00001917,-0.00000092
 ,-0.00000257,-0.00003810,0.00000669,0.00000799,-0.00000608,-0.00000114
 ,0.00000475,0.00000273,-0.00000443,0.00000204,0.00001344,0.00009591,-0
 .00006157,0.00009589,0.00000727,0.00001757,-0.00002850,-0.00001877,0.0
 0000079,-0.00000099,-0.00000710,0.00000747,0.00001788,-0.01485179,-0.0
 1554971,-0.00622995,-0.00187167,-0.00201407,0.00375697,-0.11946672,-0.
 13844964,-0.06734902,0.13031261,0.15215477,-0.00004710,-0.00002283,-0.
 00006666,-0.00005559,0.00010887,0.00017698,-0.00016859,0.00012788,0.00
 014916,0.00020480,0.00011540,0.00006773,0.00033896,0.00016406,0.000051
 06,-0.00179882,0.00009041,0.00067340,0.00041371,-0.00030418,-0.0001571
 0,-0.00016273,-0.00019219,0.00006228,-0.00072778,0.00004473,-0.0014050
 7,0.00004722,-0.00004240,0.00007898,0.00001745,-0.00002431,0.00000258,
 -0.00001115,0.00000201,0.00000359,0.00002172,-0.00000578,-0.00002692,-
 0.00001155,-0.00002738,0.00003963,-0.00002297,-0.00001823,0.00000588,0
 .00001011,0.00002579,0.00000638,0.00008350,0.00013352,-0.00020972,-0.0
 0009314,0.00013126,-0.00028880,0.00000446,0.00005333,-0.00013622,0.000
 03003,-0.00004277,0.00003152,0.00000982,-0.00000933,0.00001640,0.00000
 763,-0.00001325,0.00003406,-0.00008186,-0.00002024,0.00006561,0.000001
 60,-0.00001669,0.00000897,0.00000317,0.00000327,-0.00000669,0.00001414
 ,-0.00000542,-0.00000999,-0.00004603,0.00003946,-0.00003530,-0.0000023
 0,-0.00001049,0.00001676,0.00001694,-0.00001306,-0.00000064,-0.0000119
 3,0.00000729,-0.00001996,0.02008970,0.01274802,0.01309528,0.00141820,0
 .00516462,-0.00364510,-0.07712850,-0.06931988,-0.09278031,0.08232151,0
 .06888132,0.09520243,0.00001008,-0.00022566,0.00078032,0.00003062,-0.0
 0039723,0.00000797,-0.00000092,0.00066810,-0.00084934,-0.00010158,-0.0
 0011363,-0.00013351,-0.00004081,0.00016224,-0.00005977,0.00001007,0.00
 085463,-0.00123370,-0.00087081,0.00013671,0.00051614,0.00009260,0.0000
 0933,0.00007557,-0.00115632,0.00041375,0.00184794,-0.00018806,0.000424
 25,-0.00057638,0.00003655,-0.00001349,-0.00012565,0.00008643,0.0000325
 0,-0.00014335,-0.00006806,0.00003178,-0.00001306,-0.00003160,-0.000029
 15,0.00007387,0.00001505,-0.00000313,0.00002927,-0.00006072,0.00001217
 ,-0.00001886,-0.00003383,-0.00008037,0.00009995,-0.00004594,-0.0001317
 6,0.00009655,-0.00053203,-0.00018929,0.00068005,-0.00007222,0.00011286
 ,-0.00046784,0.00012016,0.00007214,-0.00016839,0.00006125,0.00002676,-
 0.00013338,0.00007272,0.00001886,-0.00003336,-0.00000494,0.00000797,-0
 .00000436,-0.00000525,-0.00000552,0.00000653,-0.00000528,0.00000282,0.
 00000365,-0.00006411,0.00003738,-0.00005089,0.00000666,-0.00001017,0.0
 0000880,-0.00000469,-0.00001095,0.00000388,0.00000598,0.00000372,0.000
 00887,0.01322019,-0.00617282,0.00225207,-0.00242713,-0.00343105,0.0004
 8135,-0.18734250,0.11803706,-0.06660351,-0.01522616,0.01417490,-0.0072
 3315,0.20172534,0.00009794,-0.00019164,0.00046341,0.00006426,-0.000232
 65,-0.00006969,-0.00071939,-0.00005253,0.00050500,0.00013605,0.0000134
 0,-0.00015207,0.00008433,0.00002094,-0.00009693,-0.00078586,0.00019047
 ,-0.00061265,-0.00058915,0.00002773,0.00042203,-0.00004386,0.00002429,
 -0.00004864,0.00028235,-0.00002620,-0.00310716,0.00066484,-0.00019683,
 -0.00063186,0.00006601,0.00001812,-0.00013309,0.00006768,0.00004806,-0
 .00009322,0.00002339,0.00004622,0.00000571,0.00000419,0.00002265,-0.00
 000675,-0.00004678,0.00005364,-0.00001355,-0.00000118,0.00000929,-0.00
 000671,-0.00001132,-0.00009197,0.00008257,-0.00000526,0.00007328,-0.00
 005726,-0.00036827,0.00032490,-0.00040682,-0.00010741,0.00027273,0.000
 05373,0.00003595,-0.00006463,0.00008249,0.00014965,-0.00005771,-0.0000
 8233,-0.00002541,-0.00001129,0.00000394,0.00000497,-0.00000082,0.00000
 068,0.00000030,0.00000401,0.00000065,0.00000080,-0.00000213,0.00000600
 ,0.00004554,-0.00003426,0.00003894,-0.00000117,0.00000890,-0.00000703,
 -0.00000256,0.00000524,-0.00000331,-0.00000696,0.00000138,0.00000002,0
 .01485384,-0.01684482,0.01017669,-0.00204659,-0.00036177,0.00157713,0.
 12047078,-0.13175416,0.05683229,-0.01417439,0.01214567,-0.00765857,-0.
 12846954,0.14574693,-0.00012725,0.00031274,-0.00072789,-0.00000178,0.0
 0026427,-0.00024406,0.00121416,-0.00059208,0.00042400,-0.00010508,-0.0
 0004770,0.00029339,-0.00002829,-0.00012485,0.00001304,0.00021546,-0.00
 015298,0.00050255,0.00041739,-0.00013044,-0.00026759,-0.00003346,-0.00
 000628,-0.00005640,0.00212095,-0.00010799,-0.00058464,-0.00097786,-0.0
 0044622,0.00035057,-0.00000186,0.00000163,0.00008769,-0.00011027,-0.00
 009950,0.00016911,0.00006988,0.00001954,0.00003440,0.00007001,0.000069
 55,-0.00011317,0.00003482,-0.00003825,0.00000243,0.00002009,-0.0000157
 4,-0.00000163,0.00003116,0.00006098,-0.00005388,0.00002546,0.00004064,
 -0.00000415,0.00050655,-0.00039916,0.00087744,-0.00000801,0.00008976,0
 .00000876,-0.00010415,-0.00000807,-0.00009265,0.00002821,0.00007592,-0
 .00011728,-0.00001282,-0.00000306,0.00000827,0.00000127,-0.00000007,0.
 00000031,0.00000319,0.00000103,-0.00000186,0.00000050,0.00000057,-0.00
 000422,0.00002486,-0.00001318,0.00002292,-0.00000219,0.00000740,-0.000
 00688,0.00000017,0.00000234,-0.00000190,-0.00000206,0.00000106,-0.0000
 0100,-0.02187561,0.01464934,-0.01133620,0.00129905,0.00001564,-0.00042
 866,-0.06778047,0.05775124,-0.07508990,-0.00771704,0.00693261,-0.00470
 084,0.07542291,-0.06413647,0.08038293,-0.00003074,-0.00000576,-0.00014
 604,0.00003346,0.00014370,0.00003694,0.00128425,0.00011624,-0.00013595
 ,-0.00025173,-0.00000594,0.00022157,0.00015925,0.00011826,0.00003395,-
 0.00032831,-0.00019460,0.00016079,0.00018378,-0.00007413,-0.00016970,-
 0.00001982,-0.00000722,-0.00001729,-0.00015127,-0.00124487,0.00290077,
 -0.00031013,-0.00009895,-0.00001225,0.00001613,-0.00000973,0.00000031,
 -0.00002958,-0.00001396,0.00002913,0.00002314,-0.00000465,-0.00001815,
 -0.00004549,-0.00005777,0.00006452,0.00006628,-0.00007036,0.00001991,-
 0.00000106,0.00001277,-0.00001286,0.00001805,-0.00000431,-0.00001308,-
 0.00006857,-0.00001117,-0.00009028,0.00008893,-0.00011552,0.00022878,0
 .00003582,0.00007970,0.00000594,-0.00005303,0.00000654,-0.00000792,0.0
 0000092,0.00001156,-0.00005096,0.00000900,0.00000897,0.00002468,-0.000
 00549,-0.00000689,-0.00000120,0.00000059,-0.00000150,-0.00000294,0.000
 00343,-0.00000093,-0.00000627,-0.00000341,0.00000448,-0.00000359,-0.00
 000233,0.00000101,0.00000152,0.00000749,0.00000503,-0.00000173,0.00000
 503,-0.00000703,-0.00000477,-0.00680719,0.01046999,0.00528161,0.000348
 65,-0.00017473,-0.00076888,-0.08405949,0.05321225,0.07865944,0.0111871
 5,-0.01120787,-0.01745149,-0.00721075,0.01035225,0.01738210,0.08590707
 ,0.00004387,-0.00007909,0.00008697,0.00003377,0.00014863,0.00021935,0.
 00063832,0.00040560,0.00025805,-0.00029712,0.00003833,0.00015518,0.000
 05080,0.00008554,0.00007250,-0.00026607,0.00013676,0.00027131,0.000203
 44,-0.00019038,-0.00019663,0.00008179,-0.00003550,-0.00000869,-0.00245
 287,-0.00217888,0.00560623,0.00007443,0.00010692,-0.00011991,0.0000016
 4,-0.00001470,-0.00000112,-0.00000477,0.00002285,-0.00003552,-0.000055
 19,-0.00003456,-0.00003898,-0.00012405,-0.00013568,0.00019458,0.000078
 59,-0.00008643,0.00002499,0.00001682,-0.00000694,0.00000824,-0.0000077
 4,0.00001596,-0.00004938,-0.00000300,-0.00003517,-0.00008406,-0.000040
 62,0.00000848,-0.00004310,-0.00002335,-0.00002585,-0.00003740,0.000002
 60,0.00001684,-0.00000536,-0.00002491,-0.00000161,0.00001313,-0.000023
 86,0.00000450,0.00003681,-0.00000185,-0.00000098,0.00000031,0.00000298
 ,-0.00000091,-0.00000144,0.00000804,-0.00000602,-0.00001558,-0.0000292
 0,0.00003938,-0.00001697,0.00000430,-0.00000511,-0.00000064,0.00000432
 ,-0.00001110,0.00000566,0.00000858,-0.00000442,0.00000569,-0.00820041,
 0.01329374,0.01539240,0.00021841,-0.00008227,0.00043851,0.05855174,-0.
 14204948,-0.12579962,0.00871164,-0.00819783,-0.01009423,0.00404382,-0.
 00913442,-0.01397422,-0.06122486,0.14799381,-0.00003367,0.00007890,-0.
 00007520,0.00005328,-0.00026325,-0.00046960,-0.00046150,-0.00055485,0.
 00057063,0.00027406,-0.00005270,-0.00022451,-0.00006881,-0.00013421,-0
 .00016464,0.00060696,0.00090952,-0.00076021,-0.00075275,0.00017036,0.0
 0054053,-0.00007564,0.00006385,0.00006648,0.00338749,0.00309314,-0.004
 24467,-0.00014249,-0.00003617,0.00010914,-0.00001517,0.00002164,0.0000
 0774,0.00000405,-0.00002459,0.00003359,0.00007686,0.00006899,0.0000839
 9,0.00011604,0.00012649,-0.00017593,-0.00009509,0.00008012,-0.00000537
 ,-0.00003853,0.00004523,-0.00002795,0.00000197,-0.00002292,0.00006142,
 -0.00001779,-0.00005702,0.00019347,0.00007885,-0.00003555,0.00007600,0
 .00003264,0.00001849,0.00003211,-0.00001759,-0.00001260,0.00001003,0.0
 0000168,0.00000866,-0.00001316,0.00007775,0.00000622,-0.00006275,-0.00
 000412,0.00001221,-0.00000218,-0.00000598,-0.00000211,0.00001004,-0.00
 001654,0.00000768,0.00001517,0.00001683,-0.00002813,-0.00001036,-0.000
 01006,0.00000345,0.00000647,-0.00000557,0.00001854,-0.00000818,-0.0000
 0522,0.00000131,-0.00001036,0.00685092,-0.01519150,-0.01823163,-0.0017
 7325,-0.00211389,0.00179653,0.07872208,-0.11783137,-0.20384103,0.00392
 213,-0.00317971,-0.00629935,-0.00454719,0.00707282,0.01065699,-0.08613
 662,0.12773294,0.22035676\\0.00000502,0.00000018,-0.00000786,-0.000000
 97,0.00000079,-0.00000041,-0.00000244,0.00000239,-0.00000123,0.0000037
 4,0.00000725,0.00000072,0.00000176,0.00000283,0.00000585,-0.00000378,0
 .00000211,0.00000278,0.00000174,-0.00000184,0.00000380,0.00000166,0.00
 000267,0.00000008,0.00000035,-0.00000204,-0.00000596,-0.00000447,-0.00
 000939,-0.00000304,-0.00000204,0.00000005,-0.00000335,-0.00000180,-0.0
 0000453,0.00000003,-0.00000033,0.00000328,0.00000152,0.00000097,0.0000
 0528,-0.00000527,0.00000120,0.00000754,0.00000145,0.00000160,0.0000004
 9,0.00000460,0.00000009,-0.00000503,0.00000732,-0.00000296,-0.00000011
 ,0.00000493,0.00000180,-0.00000670,-0.00000218,-0.00000274,-0.00001048
 ,-0.00000702,-0.00000272,-0.00000863,-0.00000358,-0.00000259,-0.000005
 81,-0.00000754,0.00000771,0.00000670,0.00000950,0.00000038,0.00000147,
 0.00000946,0.00000161,0.00000562,0.00001303,-0.00000015,0.00000583,0.0
 0000770,0.00000123,0.00001174,-0.00000217,0.00000163,0.00001070,0.0000
 0164,0.00000179,0.00000672,0.00000278,0.00000222,0.00000919,-0.0000010
 5,0.00000032,-0.00000410,0.00000029,-0.00000274,-0.00000677,-0.0000009
 2,-0.00000263,-0.00000513,-0.00000712,-0.00000096,-0.00000536,-0.00000
 805,-0.00000167,-0.00000776,-0.00000667,-0.00000185,-0.00000918,-0.000
 00408\\\@


 IF GOD HAD MEANT MAN TO SEE THE SUN RISE, HE
 WOULD HAVE SCHEDULED IT FOR A LATER HOUR.
 Job cpu time:       0 days  5 hours 48 minutes 32.6 seconds.
 File lengths (MBytes):  RWF=    766 Int=      0 D2E=      0 Chk=     19 Scr=      1
 Normal termination of Gaussian 09 at Tue Oct 24 16:21:39 2017.
