 Entering Gaussian System, Link 0=g09
 Initial command:
 /share/apps//g09/l1.exe "/scratch/Gau-26827.inp" -scrdir="/scratch/"
 Entering Link 1 = /share/apps//g09/l1.exe PID=     26828.
  
 Copyright (c) 1988,1990,1992,1993,1995,1998,2003,2009,2013,
            Gaussian, Inc.  All Rights Reserved.
  
 This is part of the Gaussian(R) 09 program.  It is based on
 the Gaussian(R) 03 system (copyright 2003, Gaussian, Inc.),
 the Gaussian(R) 98 system (copyright 1998, Gaussian, Inc.),
 the Gaussian(R) 94 system (copyright 1995, Gaussian, Inc.),
 the Gaussian 92(TM) system (copyright 1992, Gaussian, Inc.),
 the Gaussian 90(TM) system (copyright 1990, Gaussian, Inc.),
 the Gaussian 88(TM) system (copyright 1988, Gaussian, Inc.),
 the Gaussian 86(TM) system (copyright 1986, Carnegie Mellon
 University), and the Gaussian 82(TM) system (copyright 1983,
 Carnegie Mellon University). Gaussian is a federally registered
 trademark of Gaussian, Inc.
  
 This software contains proprietary and confidential information,
 including trade secrets, belonging to Gaussian, Inc.
  
 This software is provided under written license and may be
 used, copied, transmitted, or stored only in accord with that
 written license.
  
 The following legend is applicable only to US Government
 contracts under FAR:
  
                    RESTRICTED RIGHTS LEGEND
  
 Use, reproduction and disclosure by the US Government is
 subject to restrictions as set forth in subparagraphs (a)
 and (c) of the Commercial Computer Software - Restricted
 Rights clause in FAR 52.227-19.
  
 Gaussian, Inc.
 340 Quinnipiac St., Bldg. 40, Wallingford CT 06492
  
  
 ---------------------------------------------------------------
 Warning -- This program may not be used in any manner that
 competes with the business of Gaussian, Inc. or will provide
 assistance to any competitor of Gaussian, Inc.  The licensee
 of this program is prohibited from giving any competitor of
 Gaussian, Inc. access to this program.  By using this program,
 the user acknowledges that Gaussian, Inc. is engaged in the
 business of creating and licensing software in the field of
 computational chemistry and represents and warrants to the
 licensee that it is not a competitor of Gaussian, Inc. and that
 it will not use this program in any manner prohibited above.
 ---------------------------------------------------------------
  

 Cite this work as:
 Gaussian 09, Revision D.01,
 M. J. Frisch, G. W. Trucks, H. B. Schlegel, G. E. Scuseria, 
 M. A. Robb, J. R. Cheeseman, G. Scalmani, V. Barone, B. Mennucci, 
 G. A. Petersson, H. Nakatsuji, M. Caricato, X. Li, H. P. Hratchian, 
 A. F. Izmaylov, J. Bloino, G. Zheng, J. L. Sonnenberg, M. Hada, 
 M. Ehara, K. Toyota, R. Fukuda, J. Hasegawa, M. Ishida, T. Nakajima, 
 Y. Honda, O. Kitao, H. Nakai, T. Vreven, J. A. Montgomery, Jr., 
 J. E. Peralta, F. Ogliaro, M. Bearpark, J. J. Heyd, E. Brothers, 
 K. N. Kudin, V. N. Staroverov, T. Keith, R. Kobayashi, J. Normand, 
 K. Raghavachari, A. Rendell, J. C. Burant, S. S. Iyengar, J. Tomasi, 
 M. Cossi, N. Rega, J. M. Millam, M. Klene, J. E. Knox, J. B. Cross, 
 V. Bakken, C. Adamo, J. Jaramillo, R. Gomperts, R. E. Stratmann, 
 O. Yazyev, A. J. Austin, R. Cammi, C. Pomelli, J. W. Ochterski, 
 R. L. Martin, K. Morokuma, V. G. Zakrzewski, G. A. Voth, 
 P. Salvador, J. J. Dannenberg, S. Dapprich, A. D. Daniels, 
 O. Farkas, J. B. Foresman, J. V. Ortiz, J. Cioslowski, 
 and D. J. Fox, Gaussian, Inc., Wallingford CT, 2013.
 
 ******************************************
 Gaussian 09:  EM64L-G09RevD.01 24-Apr-2013
                10-Jan-2017 
 ******************************************
 %nproc=20
 Will use up to   20 processors via shared memory.
 %mem=100GB
 %chk=Ac-4_cGalMe.chk
 -------------------------------------------------------------------
 #P PBE1PBE/6-311+G(d,p) opt optcyc=999 freq EmpiricalDispersion=GD3
 -------------------------------------------------------------------
 1/6=999,14=-1,18=20,19=15,26=3,38=1/1,3;
 2/9=110,12=2,17=6,18=5,40=1/2;
 3/5=4,6=6,7=111,11=2,16=1,25=1,30=1,71=1,74=-13,124=31/1,2,3;
 4//1;
 5/5=2,38=5/2;
 6/7=2,8=2,9=2,10=2,28=1/1;
 7//1,2,3,16;
 1/6=999,14=-1,18=20,19=15,26=3/3(2);
 2/9=110/2;
 99//99;
 2/9=110/2;
 3/5=4,6=6,7=111,11=2,16=1,25=1,30=1,71=1,74=-13,124=31/1,2,3;
 4/5=5,16=3,69=1/1;
 5/5=2,38=5/2;
 7//1,2,3,16;
 1/6=999,14=-1,18=20,19=15,26=3/3(-5);
 2/9=110/2;
 6/7=2,8=2,9=2,10=2,19=2,28=1/1;
 99/9=1/99;
 Leave Link    1 at Tue Jan 10 05:12:01 2017, MaxMem= 13421772800 cpu:         1.5
 (Enter /share/apps//g09/l101.exe)
 -------
 disacch
 -------
 Symbolic Z-matrix:
 Charge =  1 Multiplicity = 1
 C                    -1.6716    1.88371  -1.47548 
 C                    -0.9436    0.99044  -0.46002 
 C                     0.03461   1.72496   0.45595 
 C                     0.91836   0.7837    1.32798 
 C                     1.23833  -0.49227   0.58146 
 C                     0.62033  -0.82477  -0.58641 
 O                    -0.34898  -0.07888  -1.21531 
 O                     2.12994   1.39982   1.70591 
 O                     0.85028   2.7453   -0.26129 
 O                    -0.78464   2.40444  -2.45909 
 H                    -2.14255   2.7249   -0.9405 
 H                    -2.47456   1.28946  -1.93915 
 H                    -1.69924   0.55535   0.22536 
 H                    -0.54945   2.38619   1.1077 
 H                     0.32022   0.52379   2.22488 
 H                     1.91918   0.59819  -0.98412 
 H                     0.81834  -1.74726  -1.12955 
 O                     2.14849  -1.24423   1.23917 
 C                    -0.94996   1.81994  -3.76331 
 H                    -0.22347   2.31668  -4.41727 
 H                    -0.7497    0.73782  -3.74878 
 H                    -1.9636    2.00772  -4.15168 
 C                     2.51419  -2.51034   0.66229 
 H                     1.63463  -3.16473   0.5602 
 H                     3.00052  -2.3692   -0.31571 
 H                     3.22646  -2.95372   1.36379 
 C                     2.02246   2.26075   2.85129 
 H                     1.43074   3.16655   2.63681 
 H                     1.57999   1.72116   3.70393 
 H                     3.04639   2.55594   3.10315 
 C                     1.7593    2.543    -1.15904 
 O                     2.28193   1.41427  -1.48501 
 C                     2.23762   3.75268  -1.86333 
 H                     2.34291   4.58412  -1.15718 
 H                     1.4566    4.03308  -2.58733 
 H                     3.17591   3.55164  -2.38609 
 
 NAtoms=     36 NQM=       36 NQMF=       0 NMMI=      0 NMMIF=      0
                NMic=       0 NMicF=      0.
                    Isotopes and Nuclear Properties:
 (Nuclear quadrupole moments (NQMom) in fm**2, nuclear magnetic moments (NMagM)
  in nuclear magnetons)

  Atom         1           2           3           4           5           6           7           8           9          10
 IAtWgt=          12          12          12          12          12          12          16          16          16          16
 AtmWgt=  12.0000000  12.0000000  12.0000000  12.0000000  12.0000000  12.0000000  15.9949146  15.9949146  15.9949146  15.9949146
 NucSpn=           0           0           0           0           0           0           0           0           0           0
 AtZEff=   0.0000000   0.0000000   0.0000000   0.0000000   0.0000000   0.0000000   0.0000000   0.0000000   0.0000000   0.0000000
 NQMom=    0.0000000   0.0000000   0.0000000   0.0000000   0.0000000   0.0000000   0.0000000   0.0000000   0.0000000   0.0000000
 NMagM=    0.0000000   0.0000000   0.0000000   0.0000000   0.0000000   0.0000000   0.0000000   0.0000000   0.0000000   0.0000000
 AtZNuc=   6.0000000   6.0000000   6.0000000   6.0000000   6.0000000   6.0000000   8.0000000   8.0000000   8.0000000   8.0000000

  Atom        11          12          13          14          15          16          17          18          19          20
 IAtWgt=           1           1           1           1           1           1           1          16          12           1
 AtmWgt=   1.0078250   1.0078250   1.0078250   1.0078250   1.0078250   1.0078250   1.0078250  15.9949146  12.0000000   1.0078250
 NucSpn=           1           1           1           1           1           1           1           0           0           1
 AtZEff=   0.0000000   0.0000000   0.0000000   0.0000000   0.0000000   0.0000000   0.0000000   0.0000000   0.0000000   0.0000000
 NQMom=    0.0000000   0.0000000   0.0000000   0.0000000   0.0000000   0.0000000   0.0000000   0.0000000   0.0000000   0.0000000
 NMagM=    2.7928460   2.7928460   2.7928460   2.7928460   2.7928460   2.7928460   2.7928460   0.0000000   0.0000000   2.7928460
 AtZNuc=   1.0000000   1.0000000   1.0000000   1.0000000   1.0000000   1.0000000   1.0000000   8.0000000   6.0000000   1.0000000

  Atom        21          22          23          24          25          26          27          28          29          30
 IAtWgt=           1           1          12           1           1           1          12           1           1           1
 AtmWgt=   1.0078250   1.0078250  12.0000000   1.0078250   1.0078250   1.0078250  12.0000000   1.0078250   1.0078250   1.0078250
 NucSpn=           1           1           0           1           1           1           0           1           1           1
 AtZEff=   0.0000000   0.0000000   0.0000000   0.0000000   0.0000000   0.0000000   0.0000000   0.0000000   0.0000000   0.0000000
 NQMom=    0.0000000   0.0000000   0.0000000   0.0000000   0.0000000   0.0000000   0.0000000   0.0000000   0.0000000   0.0000000
 NMagM=    2.7928460   2.7928460   0.0000000   2.7928460   2.7928460   2.7928460   0.0000000   2.7928460   2.7928460   2.7928460
 AtZNuc=   1.0000000   1.0000000   6.0000000   1.0000000   1.0000000   1.0000000   6.0000000   1.0000000   1.0000000   1.0000000

  Atom        31          32          33          34          35          36
 IAtWgt=          12          16          12           1           1           1
 AtmWgt=  12.0000000  15.9949146  12.0000000   1.0078250   1.0078250   1.0078250
 NucSpn=           0           0           0           1           1           1
 AtZEff=   0.0000000   0.0000000   0.0000000   0.0000000   0.0000000   0.0000000
 NQMom=    0.0000000   0.0000000   0.0000000   0.0000000   0.0000000   0.0000000
 NMagM=    0.0000000   0.0000000   0.0000000   2.7928460   2.7928460   2.7928460
 AtZNuc=   6.0000000   8.0000000   6.0000000   1.0000000   1.0000000   1.0000000
 Leave Link  101 at Tue Jan 10 05:12:01 2017, MaxMem= 13421772800 cpu:         4.8
 (Enter /share/apps//g09/l103.exe)

 GradGradGradGradGradGradGradGradGradGradGradGradGradGradGradGradGradGrad
 Berny optimization.
 Initialization pass.
                           ----------------------------
                           !    Initial Parameters    !
                           ! (Angstroms and Degrees)  !
 --------------------------                            --------------------------
 ! Name  Definition              Value          Derivative Info.                !
 --------------------------------------------------------------------------------
 ! R1    R(1,2)                  1.5359         estimate D2E/DX2                !
 ! R2    R(1,10)                 1.4231         estimate D2E/DX2                !
 ! R3    R(1,11)                 1.1025         estimate D2E/DX2                !
 ! R4    R(1,12)                 1.1013         estimate D2E/DX2                !
 ! R5    R(2,3)                  1.5282         estimate D2E/DX2                !
 ! R6    R(2,7)                  1.4379         estimate D2E/DX2                !
 ! R7    R(2,13)                 1.1091         estimate D2E/DX2                !
 ! R8    R(3,4)                  1.558          estimate D2E/DX2                !
 ! R9    R(3,9)                  1.4902         estimate D2E/DX2                !
 ! R10   R(3,14)                 1.0969         estimate D2E/DX2                !
 ! R11   R(4,5)                  1.5125         estimate D2E/DX2                !
 ! R12   R(4,8)                  1.4108         estimate D2E/DX2                !
 ! R13   R(4,15)                 1.1089         estimate D2E/DX2                !
 ! R14   R(5,6)                  1.3625         estimate D2E/DX2                !
 ! R15   R(5,18)                 1.3515         estimate D2E/DX2                !
 ! R16   R(6,7)                  1.3753         estimate D2E/DX2                !
 ! R17   R(6,17)                 1.0887         estimate D2E/DX2                !
 ! R18   R(8,27)                 1.4369         estimate D2E/DX2                !
 ! R19   R(9,31)                 1.2935         estimate D2E/DX2                !
 ! R20   R(10,19)                1.4387         estimate D2E/DX2                !
 ! R21   R(16,32)                1.0239         estimate D2E/DX2                !
 ! R22   R(18,23)                1.4386         estimate D2E/DX2                !
 ! R23   R(19,20)                1.0964         estimate D2E/DX2                !
 ! R24   R(19,21)                1.1006         estimate D2E/DX2                !
 ! R25   R(19,22)                1.1016         estimate D2E/DX2                !
 ! R26   R(23,24)                1.101          estimate D2E/DX2                !
 ! R27   R(23,25)                1.1013         estimate D2E/DX2                !
 ! R28   R(23,26)                1.0936         estimate D2E/DX2                !
 ! R29   R(27,28)                1.103          estimate D2E/DX2                !
 ! R30   R(27,29)                1.1018         estimate D2E/DX2                !
 ! R31   R(27,30)                1.095          estimate D2E/DX2                !
 ! R32   R(31,32)                1.2859         estimate D2E/DX2                !
 ! R33   R(31,33)                1.4792         estimate D2E/DX2                !
 ! R34   R(33,34)                1.0959         estimate D2E/DX2                !
 ! R35   R(33,35)                1.1013         estimate D2E/DX2                !
 ! R36   R(33,36)                1.0927         estimate D2E/DX2                !
 ! A1    A(2,1,10)             111.9838         estimate D2E/DX2                !
 ! A2    A(2,1,11)             108.9887         estimate D2E/DX2                !
 ! A3    A(2,1,12)             108.0662         estimate D2E/DX2                !
 ! A4    A(10,1,11)            108.809          estimate D2E/DX2                !
 ! A5    A(10,1,12)            111.1524         estimate D2E/DX2                !
 ! A6    A(11,1,12)            107.7302         estimate D2E/DX2                !
 ! A7    A(1,2,3)              114.843          estimate D2E/DX2                !
 ! A8    A(1,2,7)              106.3342         estimate D2E/DX2                !
 ! A9    A(1,2,13)             108.2876         estimate D2E/DX2                !
 ! A10   A(3,2,7)              114.0527         estimate D2E/DX2                !
 ! A11   A(3,2,13)             104.7307         estimate D2E/DX2                !
 ! A12   A(7,2,13)             108.338          estimate D2E/DX2                !
 ! A13   A(2,3,4)              114.0907         estimate D2E/DX2                !
 ! A14   A(2,3,9)              113.0145         estimate D2E/DX2                !
 ! A15   A(2,3,14)             107.7611         estimate D2E/DX2                !
 ! A16   A(4,3,9)              111.8733         estimate D2E/DX2                !
 ! A17   A(4,3,14)             109.4911         estimate D2E/DX2                !
 ! A18   A(9,3,14)              99.4784         estimate D2E/DX2                !
 ! A19   A(3,4,5)              110.6953         estimate D2E/DX2                !
 ! A20   A(3,4,8)              111.9147         estimate D2E/DX2                !
 ! A21   A(3,4,15)             106.7579         estimate D2E/DX2                !
 ! A22   A(5,4,8)              108.5997         estimate D2E/DX2                !
 ! A23   A(5,4,15)             108.3949         estimate D2E/DX2                !
 ! A24   A(8,4,15)             110.4205         estimate D2E/DX2                !
 ! A25   A(4,5,6)              122.2062         estimate D2E/DX2                !
 ! A26   A(4,5,18)             111.8178         estimate D2E/DX2                !
 ! A27   A(6,5,18)             125.9329         estimate D2E/DX2                !
 ! A28   A(5,6,7)              125.4008         estimate D2E/DX2                !
 ! A29   A(5,6,17)             123.4992         estimate D2E/DX2                !
 ! A30   A(7,6,17)             111.0765         estimate D2E/DX2                !
 ! A31   A(2,7,6)              117.039          estimate D2E/DX2                !
 ! A32   A(4,8,27)             114.2653         estimate D2E/DX2                !
 ! A33   A(3,9,31)             127.7047         estimate D2E/DX2                !
 ! A34   A(1,10,19)            113.9706         estimate D2E/DX2                !
 ! A35   A(5,18,23)            117.7582         estimate D2E/DX2                !
 ! A36   A(10,19,20)           106.2889         estimate D2E/DX2                !
 ! A37   A(10,19,21)           111.504          estimate D2E/DX2                !
 ! A38   A(10,19,22)           110.8586         estimate D2E/DX2                !
 ! A39   A(20,19,21)           109.436          estimate D2E/DX2                !
 ! A40   A(20,19,22)           108.7944         estimate D2E/DX2                !
 ! A41   A(21,19,22)           109.8573         estimate D2E/DX2                !
 ! A42   A(18,23,24)           110.9277         estimate D2E/DX2                !
 ! A43   A(18,23,25)           110.8279         estimate D2E/DX2                !
 ! A44   A(18,23,26)           105.3761         estimate D2E/DX2                !
 ! A45   A(24,23,25)           110.2788         estimate D2E/DX2                !
 ! A46   A(24,23,26)           109.8039         estimate D2E/DX2                !
 ! A47   A(25,23,26)           109.51           estimate D2E/DX2                !
 ! A48   A(8,27,28)            112.1583         estimate D2E/DX2                !
 ! A49   A(8,27,29)            110.7001         estimate D2E/DX2                !
 ! A50   A(8,27,30)            105.9576         estimate D2E/DX2                !
 ! A51   A(28,27,29)           109.7078         estimate D2E/DX2                !
 ! A52   A(28,27,30)           108.965          estimate D2E/DX2                !
 ! A53   A(29,27,30)           109.242          estimate D2E/DX2                !
 ! A54   A(9,31,32)            126.7878         estimate D2E/DX2                !
 ! A55   A(9,31,33)            115.4539         estimate D2E/DX2                !
 ! A56   A(32,31,33)           117.7568         estimate D2E/DX2                !
 ! A57   A(16,32,31)           115.5696         estimate D2E/DX2                !
 ! A58   A(31,33,34)           110.1637         estimate D2E/DX2                !
 ! A59   A(31,33,35)           106.972          estimate D2E/DX2                !
 ! A60   A(31,33,36)           110.7917         estimate D2E/DX2                !
 ! A61   A(34,33,35)           107.3721         estimate D2E/DX2                !
 ! A62   A(34,33,36)           111.4282         estimate D2E/DX2                !
 ! A63   A(35,33,36)           109.9559         estimate D2E/DX2                !
 ! D1    D(10,1,2,3)            67.8093         estimate D2E/DX2                !
 ! D2    D(10,1,2,7)           -59.327          estimate D2E/DX2                !
 ! D3    D(10,1,2,13)         -175.568          estimate D2E/DX2                !
 ! D4    D(11,1,2,3)           -52.6297         estimate D2E/DX2                !
 ! D5    D(11,1,2,7)          -179.766          estimate D2E/DX2                !
 ! D6    D(11,1,2,13)           63.9931         estimate D2E/DX2                !
 ! D7    D(12,1,2,3)          -169.4382         estimate D2E/DX2                !
 ! D8    D(12,1,2,7)            63.4255         estimate D2E/DX2                !
 ! D9    D(12,1,2,13)          -52.8155         estimate D2E/DX2                !
 ! D10   D(2,1,10,19)          108.2558         estimate D2E/DX2                !
 ! D11   D(11,1,10,19)        -131.2007         estimate D2E/DX2                !
 ! D12   D(12,1,10,19)         -12.7278         estimate D2E/DX2                !
 ! D13   D(1,2,3,4)           -171.2416         estimate D2E/DX2                !
 ! D14   D(1,2,3,9)            -41.9462         estimate D2E/DX2                !
 ! D15   D(1,2,3,14)            66.9548         estimate D2E/DX2                !
 ! D16   D(7,2,3,4)            -48.1467         estimate D2E/DX2                !
 ! D17   D(7,2,3,9)             81.1488         estimate D2E/DX2                !
 ! D18   D(7,2,3,14)          -169.9503         estimate D2E/DX2                !
 ! D19   D(13,2,3,4)            70.1212         estimate D2E/DX2                !
 ! D20   D(13,2,3,9)          -160.5833         estimate D2E/DX2                !
 ! D21   D(13,2,3,14)          -51.6824         estimate D2E/DX2                !
 ! D22   D(1,2,7,6)            164.5761         estimate D2E/DX2                !
 ! D23   D(3,2,7,6)             36.9693         estimate D2E/DX2                !
 ! D24   D(13,2,7,6)           -79.2168         estimate D2E/DX2                !
 ! D25   D(2,3,4,5)             33.7425         estimate D2E/DX2                !
 ! D26   D(2,3,4,8)            155.0404         estimate D2E/DX2                !
 ! D27   D(2,3,4,15)           -84.0356         estimate D2E/DX2                !
 ! D28   D(9,3,4,5)            -96.1233         estimate D2E/DX2                !
 ! D29   D(9,3,4,8)             25.1747         estimate D2E/DX2                !
 ! D30   D(9,3,4,15)           146.0987         estimate D2E/DX2                !
 ! D31   D(14,3,4,5)           154.5879         estimate D2E/DX2                !
 ! D32   D(14,3,4,8)           -84.1142         estimate D2E/DX2                !
 ! D33   D(14,3,4,15)           36.8098         estimate D2E/DX2                !
 ! D34   D(2,3,9,31)           -67.3494         estimate D2E/DX2                !
 ! D35   D(4,3,9,31)            63.0726         estimate D2E/DX2                !
 ! D36   D(14,3,9,31)          178.6382         estimate D2E/DX2                !
 ! D37   D(3,4,5,6)            -10.6302         estimate D2E/DX2                !
 ! D38   D(3,4,5,18)           171.6266         estimate D2E/DX2                !
 ! D39   D(8,4,5,6)           -133.8663         estimate D2E/DX2                !
 ! D40   D(8,4,5,18)            48.3905         estimate D2E/DX2                !
 ! D41   D(15,4,5,6)           106.1421         estimate D2E/DX2                !
 ! D42   D(15,4,5,18)          -71.6012         estimate D2E/DX2                !
 ! D43   D(3,4,8,27)            82.4154         estimate D2E/DX2                !
 ! D44   D(5,4,8,27)          -155.0845         estimate D2E/DX2                !
 ! D45   D(15,4,8,27)          -36.3616         estimate D2E/DX2                !
 ! D46   D(4,5,6,7)             -0.5324         estimate D2E/DX2                !
 ! D47   D(4,5,6,17)          -178.6132         estimate D2E/DX2                !
 ! D48   D(18,5,6,7)           176.8799         estimate D2E/DX2                !
 ! D49   D(18,5,6,17)           -1.2008         estimate D2E/DX2                !
 ! D50   D(4,5,18,23)          178.0223         estimate D2E/DX2                !
 ! D51   D(6,5,18,23)            0.3807         estimate D2E/DX2                !
 ! D52   D(5,6,7,2)            -12.9689         estimate D2E/DX2                !
 ! D53   D(17,6,7,2)           165.316          estimate D2E/DX2                !
 ! D54   D(4,8,27,28)          -68.5205         estimate D2E/DX2                !
 ! D55   D(4,8,27,29)           54.3763         estimate D2E/DX2                !
 ! D56   D(4,8,27,30)          172.7012         estimate D2E/DX2                !
 ! D57   D(3,9,31,32)          -10.6055         estimate D2E/DX2                !
 ! D58   D(3,9,31,33)          169.8488         estimate D2E/DX2                !
 ! D59   D(1,10,19,20)         179.2124         estimate D2E/DX2                !
 ! D60   D(1,10,19,21)         -61.5959         estimate D2E/DX2                !
 ! D61   D(1,10,19,22)          61.1437         estimate D2E/DX2                !
 ! D62   D(5,18,23,24)         -59.5577         estimate D2E/DX2                !
 ! D63   D(5,18,23,25)          63.2957         estimate D2E/DX2                !
 ! D64   D(5,18,23,26)        -178.3319         estimate D2E/DX2                !
 ! D65   D(9,31,32,16)           1.1069         estimate D2E/DX2                !
 ! D66   D(33,31,32,16)       -179.3567         estimate D2E/DX2                !
 ! D67   D(9,31,33,34)          40.2944         estimate D2E/DX2                !
 ! D68   D(9,31,33,35)         -76.1049         estimate D2E/DX2                !
 ! D69   D(9,31,33,36)         164.0552         estimate D2E/DX2                !
 ! D70   D(32,31,33,34)       -139.2944         estimate D2E/DX2                !
 ! D71   D(32,31,33,35)        104.3063         estimate D2E/DX2                !
 ! D72   D(32,31,33,36)        -15.5335         estimate D2E/DX2                !
 --------------------------------------------------------------------------------
 Trust Radius=3.00D-01 FncErr=1.00D-07 GrdErr=1.00D-06
 Number of steps in this run=    216 maximum allowed number of steps=    216.
 GradGradGradGradGradGradGradGradGradGradGradGradGradGradGradGradGradGrad

 Leave Link  103 at Tue Jan 10 05:12:02 2017, MaxMem= 13421772800 cpu:         0.2
 (Enter /share/apps//g09/l202.exe)
                          Input orientation:                          
 ---------------------------------------------------------------------
 Center     Atomic      Atomic             Coordinates (Angstroms)
 Number     Number       Type             X           Y           Z
 ---------------------------------------------------------------------
      1          6           0       -1.671600    1.883710   -1.475480
      2          6           0       -0.943600    0.990440   -0.460020
      3          6           0        0.034610    1.724960    0.455950
      4          6           0        0.918360    0.783700    1.327980
      5          6           0        1.238330   -0.492270    0.581460
      6          6           0        0.620330   -0.824770   -0.586410
      7          8           0       -0.348980   -0.078880   -1.215310
      8          8           0        2.129940    1.399820    1.705910
      9          8           0        0.850280    2.745300   -0.261290
     10          8           0       -0.784640    2.404440   -2.459090
     11          1           0       -2.142550    2.724900   -0.940500
     12          1           0       -2.474560    1.289460   -1.939150
     13          1           0       -1.699240    0.555350    0.225360
     14          1           0       -0.549450    2.386190    1.107700
     15          1           0        0.320220    0.523790    2.224880
     16          1           0        1.919180    0.598190   -0.984120
     17          1           0        0.818340   -1.747260   -1.129550
     18          8           0        2.148490   -1.244230    1.239170
     19          6           0       -0.949960    1.819940   -3.763310
     20          1           0       -0.223470    2.316680   -4.417270
     21          1           0       -0.749700    0.737820   -3.748780
     22          1           0       -1.963600    2.007720   -4.151680
     23          6           0        2.514190   -2.510340    0.662290
     24          1           0        1.634630   -3.164730    0.560200
     25          1           0        3.000520   -2.369200   -0.315710
     26          1           0        3.226460   -2.953720    1.363790
     27          6           0        2.022460    2.260750    2.851290
     28          1           0        1.430740    3.166550    2.636810
     29          1           0        1.579990    1.721160    3.703930
     30          1           0        3.046390    2.555940    3.103150
     31          6           0        1.759300    2.543000   -1.159040
     32          8           0        2.281930    1.414270   -1.485010
     33          6           0        2.237620    3.752680   -1.863330
     34          1           0        2.342910    4.584120   -1.157180
     35          1           0        1.456600    4.033080   -2.587330
     36          1           0        3.175910    3.551640   -2.386090
 ---------------------------------------------------------------------
                    Distance matrix (angstroms):
                    1          2          3          4          5
     1  C    0.000000
     2  C    1.535928   0.000000
     3  C    2.582010   1.528207   0.000000
     4  C    3.972065   2.589707   1.558018   0.000000
     5  C    4.282987   2.836182   2.526025   1.512538   0.000000
     6  C    3.657766   2.399341   2.816151   2.518112   1.362498
     7  O    2.380918   1.437874   2.488793   2.969599   2.432864
     8  O    4.980672   3.782260   2.461407   1.410802   2.374734
     9  O    2.928562   2.517346   1.490250   2.525527   3.367888
    10  O    1.423147   2.453761   3.103276   4.457455   4.661360
    11  H    1.102542   2.162566   2.773081   4.275913   4.908859
    12  H    1.101303   2.149669   3.496012   4.737282   4.828415
    13  H    2.158277   1.109072   2.104138   2.849517   3.139050
    14  H    2.860861   2.135701   1.096872   2.184254   3.429084
    15  H    4.416944   3.003946   2.157196   1.108943   2.139190
    16  H    3.845478   2.936673   2.625836   2.526235   2.025759
    17  H    4.416267   3.323809   3.896711   3.529195   2.163087
    18  O    5.634396   4.176364   3.728004   2.373522   1.351450
    19  C    2.399791   3.405853   4.333654   5.521381   5.386275
    20  H    3.307366   4.235248   4.915792   6.054891   5.917293
    21  H    2.707555   3.304142   4.389686   5.343971   4.921012
    22  H    2.694938   3.962778   5.030214   6.311148   6.237381
    23  C    6.434172   5.046915   4.912093   3.720284   2.388924
    24  H    6.368822   4.995353   5.145872   4.085661   2.701768
    25  H    6.423474   5.183058   5.114120   4.120423   2.726370
    26  H    7.446689   6.022631   5.736038   4.392826   3.259361
    27  C    5.701682   4.623416   3.158524   2.391900   3.653232
    28  H    5.308589   4.468031   2.963699   2.766504   4.201006
    29  H    6.117642   4.923509   3.596886   2.638508   3.842632
    30  H    6.608720   5.573777   4.094999   3.289464   4.349665
    31  C    3.507973   3.194486   2.500388   3.160314   3.537459
    32  O    3.981314   3.410906   2.985683   3.189021   2.999049
    33  C    4.350342   4.440654   3.787342   4.554091   4.999518
    34  H    4.848693   4.919524   4.013133   4.759050   5.478385
    35  H    3.954951   4.420867   4.075663   5.116427   5.528803
    36  H    5.206684   5.219181   4.613211   5.152896   5.377153
                    6          7          8          9         10
     6  C    0.000000
     7  O    1.375292   0.000000
     8  O    3.533052   4.106717   0.000000
     9  O    3.592211   3.213156   2.705129   0.000000
    10  O    3.988567   2.811346   5.181820   2.760339   0.000000
    11  H    4.512100   3.339700   5.197451   3.069002   2.062215
    12  H    3.984748   2.629523   5.873675   3.998655   2.090298
    13  H    2.818529   2.073880   4.191393   3.395992   3.385543
    14  H    3.814270   3.393101   2.917175   1.990562   3.574582
    15  H    3.132416   3.556114   2.076498   3.375961   5.166927
    16  H    1.967231   2.378323   2.814834   2.505017   3.570535
    17  H    1.088667   2.038009   4.434438   4.575805   4.644764
    18  O    2.417429   3.690511   2.684994   4.455679   5.966001
    19  C    4.421877   3.234037   6.290839   4.044910   1.438736
    20  H    5.025554   4.000876   6.623632   4.313795   2.038892
    21  H    3.784079   2.691848   6.203565   4.330416   2.107639
    22  H    5.235537   3.947552   7.172027   4.857682   2.100522
    23  C    2.826146   4.199419   4.065236   5.589575   6.691813
    24  H    2.796235   4.075489   4.732135   6.018181   6.781197
    25  H    2.850236   4.156200   4.364673   5.548387   6.458262
    26  H    3.889424   5.263101   4.502523   6.384821   7.707997
    27  C    4.827441   5.256884   1.436888   3.361093   6.008377
    28  H    5.193895   5.342195   2.115843   2.985527   5.608647
    29  H    5.080327   5.582114   2.097090   4.159845   6.636352
    30  H    5.561279   6.092611   2.031938   4.022215   6.755609
    31  C    3.600977   3.364857   3.106795   1.293521   2.860238
    32  O    2.929453   3.037091   3.194570   2.306242   3.366470
    33  C    5.019880   4.668113   4.276332   2.346499   3.362549
    34  H    5.705186   5.384535   4.287471   2.532158   4.028343
    35  H    5.319937   4.695825   5.081275   2.726988   2.773458
    36  H    5.377992   5.193867   4.740131   3.251694   4.123997
                   11         12         13         14         15
    11  H    0.000000
    12  H    1.779893   0.000000
    13  H    2.502539   2.413533   0.000000
    14  H    2.616833   3.767248   2.335062   0.000000
    15  H    4.574905   5.073085   2.842058   2.339434   0.000000
    16  H    4.585024   4.549163   3.815448   3.696862   3.586069
    17  H    5.366826   4.551957   3.670968   4.895053   4.081420
    18  O    6.238428   6.155802   4.367073   4.525054   2.727653
    19  C    3.195228   2.435852   4.250894   4.920141   6.257138
    20  H    3.992172   3.501952   5.180173   5.535015   6.901319
    21  H    3.711463   2.560119   4.090075   5.132506   6.072491
    22  H    3.295155   2.381652   4.619280   5.459317   6.933859
    23  C    7.187621   6.789227   5.228992   5.793124   4.057233
    24  H    7.155902   6.555303   5.006576   5.990215   4.254881
    25  H    7.265768   6.782172   5.561789   6.102632   4.691268
    26  H    8.147561   7.836812   6.154032   6.545053   4.613110
    27  C    5.651585   6.641905   4.863635   3.109753   2.511382
    28  H    5.075490   6.301924   4.736057   2.620743   2.896053
    29  H    6.036185   6.962047   4.920662   3.423038   2.282171
    30  H    6.580635   7.583512   5.899580   4.115908   3.511836
    31  C    3.912196   4.483916   4.222418   3.239294   4.195125
    32  O    4.646533   4.779751   4.417332   3.960238   4.290052
    33  C    4.592803   5.317691   5.484926   4.296751   5.551181
    34  H    4.860350   5.888487   5.872085   4.280926   5.658258
    35  H    4.168605   4.837521   5.474044   4.515499   6.063319
    36  H    5.573082   6.102870   6.290033   5.238621   6.211593
                   16         17         18         19         20
    16  H    0.000000
    17  H    2.595021   0.000000
    18  O    2.896569   2.762820   0.000000
    19  C    4.177144   4.773729   6.634330   0.000000
    20  H    4.396666   5.330111   7.092361   1.096450   0.000000
    21  H    3.845226   3.936336   6.099809   1.100590   1.793487
    22  H    5.205400   5.565279   7.519689   1.101616   1.787190
    23  C    3.567585   2.582419   1.438597   7.094899   7.523087
    24  H    4.077433   2.351766   2.100803   7.086592   7.633715
    25  H    3.228230   2.410613   2.099801   6.711269   7.012444
    26  H    4.453956   3.670331   2.024822   8.155824   8.549841
    27  C    4.181524   5.775910   3.860013   7.265158   7.607844
    28  H    4.466115   6.221417   4.682258   6.960074   7.295117
    29  H    4.832590   5.997714   3.897662   7.884800   8.340324
    30  H    4.670028   6.434088   4.326885   7.978771   8.204020
    31  C    1.959195   4.392335   4.499555   3.826895   3.820819
    32  O    1.023946   3.501959   3.808751   3.974963   3.961000
    33  C    3.290170   5.727314   5.882394   4.184026   3.826443
    34  H    4.012123   6.512407   6.304757   5.027484   4.728190
    35  H    3.818734   5.995401   6.555213   3.474543   3.019494
    36  H    3.502536   5.934254   6.099055   4.681701   4.148084
                   21         22         23         24         25
    21  H    0.000000
    22  H    1.802367   0.000000
    23  C    6.376603   7.977329   0.000000
    24  H    6.283489   7.867866   1.101033   0.000000
    25  H    5.958498   7.649482   1.101327   1.807136   0.000000
    26  H    7.454910   9.053895   1.093625   1.795607   1.792605
    27  C    7.318819   8.061903   5.272269   5.902147   5.694113
    28  H    7.171388   7.677762   6.107346   6.666257   6.467311
    29  H    7.870025   8.622630   5.294327   5.810159   5.908169
    30  H    8.041443   8.833635   5.648737   6.417611   5.995641
    31  C    4.032432   4.806496   5.424329   5.962341   5.136296
    32  O    3.843569   5.048548   4.479666   5.056592   4.024709
    33  C    4.644177   5.092316   6.758747   7.354431   6.360390
    34  H    5.574464   5.843877   7.326061   7.968421   7.034855
    35  H    4.132247   4.271656   7.382064   7.857933   6.966573
    36  H    5.018458   5.649386   6.817485   7.494384   6.274837
                   26         27         28         29         30
    26  H    0.000000
    27  C    5.554545   0.000000
    28  H    6.504068   1.102999   0.000000
    29  H    5.481024   1.101786   1.802824   0.000000
    30  H    5.780498   1.094990   1.789034   1.791123   0.000000
    31  C    6.223436   4.028854   3.860731   4.935185   4.452306
    32  O    5.299730   4.425760   4.558992   5.245188   4.789470
    33  C    7.507856   4.949726   4.609324   5.962712   5.172255
    34  H    7.997186   4.644197   4.151616   5.692888   4.770619
    35  H    8.219436   5.748038   5.295581   6.703742   6.090233
    36  H    7.508919   5.516067   5.331364   6.556368   5.580318
                   31         32         33         34         35
    31  C    0.000000
    32  O    1.285858   0.000000
    33  C    1.479236   2.369230   0.000000
    34  H    2.122917   3.187341   1.095913   0.000000
    35  H    2.086140   2.958791   1.101269   1.770457   0.000000
    36  H    2.128330   2.485859   1.092741   1.808348   1.796750
                   36
    36  H    0.000000
 Stoichiometry    C11H19O6(1+)
 Framework group  C1[X(C11H19O6)]
 Deg. of freedom   102
 Full point group                 C1      NOp   1
 Largest Abelian subgroup         C1      NOp   1
 Largest concise Abelian subgroup C1      NOp   1
                         Standard orientation:                         
 ---------------------------------------------------------------------
 Center     Atomic      Atomic             Coordinates (Angstroms)
 Number     Number       Type             X           Y           Z
 ---------------------------------------------------------------------
      1          6           0        2.346772   -0.679601   -1.462483
      2          6           0        0.817172   -0.789084   -1.376388
      3          6           0        0.088070    0.540312   -1.185257
      4          6           0       -1.433770    0.393619   -0.885414
      5          6           0       -1.700581   -0.853537   -0.072281
      6          6           0       -0.745648   -1.802856    0.135796
      7          8           0        0.538246   -1.762515   -0.355549
      8          8           0       -1.941576    1.506371   -0.182365
      9          8           0        0.762613    1.439339   -0.206693
     10          8           0        2.922750   -0.279083   -0.224266
     11          1           0        2.610453    0.062756   -2.233829
     12          1           0        2.741271   -1.655210   -1.787176
     13          1           0        0.441280   -1.180354   -2.343680
     14          1           0        0.225773    1.131796   -2.098665
     15          1           0       -1.943909    0.288836   -1.864461
     16          1           0       -0.314487   -0.263256    1.281977
     17          1           0       -0.920845   -2.718094    0.698683
     18          8           0       -2.981438   -0.910040    0.355070
     19          6           0        3.639057   -1.326856    0.453256
     20          1           0        4.037457   -0.882124    1.372873
     21          1           0        2.976780   -2.167528    0.710078
     22          1           0        4.480235   -1.687032   -0.160137
     23          6           0       -3.386745   -2.068228    1.105995
     24          1           0       -3.249949   -2.987424    0.515537
     25          1           0       -2.828363   -2.136132    2.052843
     26          1           0       -4.449111   -1.918939    1.318380
     27          6           0       -2.275245    2.628861   -1.015028
     28          1           0       -1.380811    3.100109   -1.456072
     29          1           0       -2.969286    2.327103   -1.815766
     30          1           0       -2.772309    3.352181   -0.360245
     31          6           0        0.892042    1.265528    1.068546
     32          8           0        0.304683    0.376273    1.788036
     33          6           0        1.809349    2.205936    1.748488
     34          1           0        1.680944    3.216884    1.345346
     35          1           0        2.835009    1.884268    1.509022
     36          1           0        1.654805    2.184835    2.830039
 ---------------------------------------------------------------------
 Rotational constants (GHZ):      0.6467530      0.3886300      0.3244912
 Leave Link  202 at Tue Jan 10 05:12:02 2017, MaxMem= 13421772800 cpu:         0.7
 (Enter /share/apps//g09/l301.exe)
 Standard basis: 6-311+G(d,p) (5D, 7F)
 Ernie: Thresh=  0.10000D-02 Tol=  0.10000D-05 Strict=F.
 There are   505 symmetry adapted cartesian basis functions of A   symmetry.
 There are   488 symmetry adapted basis functions of A   symmetry.
   488 basis functions,   764 primitive gaussians,   505 cartesian basis functions
    66 alpha electrons       66 beta electrons
       nuclear repulsion energy      1439.3640466151 Hartrees.
 IExCor= 1009 DFT=T Ex+Corr=PBE1PBE ExCW=0 ScaHFX=  0.250000
 ScaDFX=  0.750000  0.750000  1.000000  1.000000 ScalE2=  1.000000  1.000000
 IRadAn=      0 IRanWt=     -1 IRanGd=            0 ICorTp=0 IEmpDi=131
 NAtoms=   36 NActive=   36 NUniq=   36 SFac= 1.00D+00 NAtFMM=   60 NAOKFM=F Big=F
 Integral buffers will be    131072 words long.
 Raffenetti 2 integral format.
 Two-electron integral symmetry is turned on.
 R6Disp:  Grimme-D3 Dispersion energy=       -0.0258513424 Hartrees.
 Nuclear repulsion after empirical dispersion term =     1439.3381952727 Hartrees.
 Leave Link  301 at Tue Jan 10 05:12:02 2017, MaxMem= 13421772800 cpu:         1.3
 (Enter /share/apps//g09/l302.exe)
 NPDir=0 NMtPBC=     1 NCelOv=     1 NCel=       1 NClECP=     1 NCelD=      1
         NCelK=      1 NCelE2=     1 NClLst=     1 CellRange=     0.0.
 One-electron integrals computed using PRISM.
 NBasis=   488 RedAO= T EigKep=  1.37D-06  NBF=   488
 NBsUse=   488 1.00D-06 EigRej= -1.00D+00 NBFU=   488
 Precomputing XC quadrature grid using
 IXCGrd= 4 IRadAn=           0 IRanWt=          -1 IRanGd=           0 AccXCQ= 0.00D+00.
 Generated NRdTot=       0 NPtTot=           0 NUsed=           0 NTot=          32
 NSgBfM=   505   505   505   505   505 MxSgAt=    36 MxSgA2=    36.
 Leave Link  302 at Tue Jan 10 05:12:03 2017, MaxMem= 13421772800 cpu:        11.4
 (Enter /share/apps//g09/l303.exe)
 DipDrv:  MaxL=1.
 Leave Link  303 at Tue Jan 10 05:12:03 2017, MaxMem= 13421772800 cpu:         6.5
 (Enter /share/apps//g09/l401.exe)
 ExpMin= 4.38D-02 ExpMax= 8.59D+03 ExpMxC= 1.30D+03 IAcc=2 IRadAn=         4 AccDes= 0.00D+00
 Harris functional with IExCor= 1009 and IRadAn=       4 diagonalized for initial guess.
 HarFok:  IExCor= 1009 AccDes= 0.00D+00 IRadAn=         4 IDoV= 1 UseB2=F ITyADJ=14
 ICtDFT=  3500011 ScaDFX=  1.000000  1.000000  1.000000  1.000000
 FoFCou: FMM=F IPFlag=           0 FMFlag=      100000 FMFlg1=           0
         NFxFlg=           0 DoJE=T BraDBF=F KetDBF=T FulRan=T
         wScrn=  0.000000 ICntrl=     500 IOpCl=  0 I1Cent=   200000004 NGrid=           0
         NMat0=    1 NMatS0=      1 NMatT0=    0 NMatD0=    1 NMtDS0=    0 NMtDT0=    0
 Petite list used in FoFCou.
 Harris En= -881.098438704171    
 JPrj=0 DoOrth=F DoCkMO=F.
 Leave Link  401 at Tue Jan 10 05:12:05 2017, MaxMem= 13421772800 cpu:        24.1
 (Enter /share/apps//g09/l502.exe)
 Closed shell SCF:
 Using DIIS extrapolation, IDIIS=  1040.
 Integral symmetry usage will be decided dynamically.
 Keep R1 ints in memory in canonical form, NReq=7183787934.
 IVT=      797493 IEndB=      797493 NGot= 13421772800 MDV=  6302761722
 LenX=  6302761722 LenY=  6302506192
 Requested convergence on RMS density matrix=1.00D-08 within 128 cycles.
 Requested convergence on MAX density matrix=1.00D-06.
 Requested convergence on             energy=1.00D-06.
 No special actions if energy rises.
 FoFCou: FMM=F IPFlag=           0 FMFlag=           0 FMFlg1=           0
         NFxFlg=           0 DoJE=F BraDBF=F KetDBF=F FulRan=T
         wScrn=  0.000000 ICntrl=     600 IOpCl=  0 I1Cent=           0 NGrid=           0
         NMat0=    1 NMatS0= 119316 NMatT0=    0 NMatD0=    1 NMtDS0=    0 NMtDT0=    0
 Symmetry not used in FoFCou.

 Cycle   1  Pass 1  IDiag  1:
 E= -880.632691441355    
 DIIS: error= 1.55D-02 at cycle   1 NSaved=   1.
 NSaved= 1 IEnMin= 1 EnMin= -880.632691441355     IErMin= 1 ErrMin= 1.55D-02
 ErrMax= 1.55D-02  0.00D+00 EMaxC= 1.00D-01 BMatC= 3.74D-01 BMatP= 3.74D-01
 IDIUse=3 WtCom= 8.45D-01 WtEn= 1.55D-01
 Coeff-Com:  0.100D+01
 Coeff-En:   0.100D+01
 Coeff:      0.100D+01
 Gap=     0.115 Goal=   None    Shift=    0.000
 GapD=    0.115 DampG=1.000 DampE=0.500 DampFc=0.5000 IDamp=-1.
 Damping current iteration by 5.00D-01
 RMSDP=1.41D-02 MaxDP=2.57D+00              OVMax= 1.12D-01

 Cycle   2  Pass 1  IDiag  1:
 E= -880.761906256638     Delta-E=       -0.129214815282 Rises=F Damp=T
 DIIS: error= 3.23D-03 at cycle   2 NSaved=   2.
 NSaved= 2 IEnMin= 2 EnMin= -880.761906256638     IErMin= 2 ErrMin= 3.23D-03
 ErrMax= 3.23D-03  0.00D+00 EMaxC= 1.00D-01 BMatC= 2.88D-02 BMatP= 3.74D-01
 IDIUse=3 WtCom= 9.68D-01 WtEn= 3.23D-02
 Coeff-Com: -0.235D-01 0.102D+01
 Coeff-En:   0.800D-02 0.992D+00
 Coeff:     -0.225D-01 0.102D+01
 Gap=     0.197 Goal=   None    Shift=    0.000
 RMSDP=5.04D-03 MaxDP=1.21D+00 DE=-1.29D-01 OVMax= 7.77D-02

 Cycle   3  Pass 1  IDiag  1:
 E= -880.891703824133     Delta-E=       -0.129797567495 Rises=F Damp=F
 DIIS: error= 4.43D-03 at cycle   3 NSaved=   3.
 NSaved= 3 IEnMin= 3 EnMin= -880.891703824133     IErMin= 2 ErrMin= 3.23D-03
 ErrMax= 4.43D-03  0.00D+00 EMaxC= 1.00D-01 BMatC= 2.34D-02 BMatP= 2.88D-02
 IDIUse=3 WtCom= 9.56D-01 WtEn= 4.43D-02
 Coeff-Com: -0.948D-01 0.510D+00 0.585D+00
 Coeff-En:   0.000D+00 0.000D+00 0.100D+01
 Coeff:     -0.906D-01 0.488D+00 0.603D+00
 Gap=     0.179 Goal=   None    Shift=    0.000
 RMSDP=1.90D-03 MaxDP=1.73D-01 DE=-1.30D-01 OVMax= 3.15D-02

 Cycle   4  Pass 1  IDiag  1:
 E= -880.905555890260     Delta-E=       -0.013852066127 Rises=F Damp=F
 DIIS: error= 2.18D-03 at cycle   4 NSaved=   4.
 NSaved= 4 IEnMin= 4 EnMin= -880.905555890260     IErMin= 4 ErrMin= 2.18D-03
 ErrMax= 2.18D-03  0.00D+00 EMaxC= 1.00D-01 BMatC= 4.78D-03 BMatP= 2.34D-02
 IDIUse=3 WtCom= 9.78D-01 WtEn= 2.18D-02
 Coeff-Com: -0.479D-01 0.158D+00 0.354D+00 0.536D+00
 Coeff-En:   0.000D+00 0.000D+00 0.166D+00 0.834D+00
 Coeff:     -0.468D-01 0.154D+00 0.350D+00 0.542D+00
 Gap=     0.175 Goal=   None    Shift=    0.000
 RMSDP=1.06D-03 MaxDP=2.39D-01 DE=-1.39D-02 OVMax= 1.41D-02

 Cycle   5  Pass 1  IDiag  1:
 E= -880.909062656654     Delta-E=       -0.003506766394 Rises=F Damp=F
 DIIS: error= 5.60D-04 at cycle   5 NSaved=   5.
 NSaved= 5 IEnMin= 5 EnMin= -880.909062656654     IErMin= 5 ErrMin= 5.60D-04
 ErrMax= 5.60D-04  0.00D+00 EMaxC= 1.00D-01 BMatC= 2.69D-04 BMatP= 4.78D-03
 IDIUse=3 WtCom= 9.94D-01 WtEn= 5.60D-03
 Coeff-Com: -0.181D-01 0.475D-01 0.143D+00 0.284D+00 0.544D+00
 Coeff-En:   0.000D+00 0.000D+00 0.000D+00 0.000D+00 0.100D+01
 Coeff:     -0.180D-01 0.472D-01 0.142D+00 0.282D+00 0.547D+00
 Gap=     0.176 Goal=   None    Shift=    0.000
 RMSDP=1.05D-04 MaxDP=1.19D-02 DE=-3.51D-03 OVMax= 3.38D-03

 Cycle   6  Pass 1  IDiag  1:
 E= -880.909226576714     Delta-E=       -0.000163920060 Rises=F Damp=F
 DIIS: error= 2.33D-04 at cycle   6 NSaved=   6.
 NSaved= 6 IEnMin= 6 EnMin= -880.909226576714     IErMin= 6 ErrMin= 2.33D-04
 ErrMax= 2.33D-04  0.00D+00 EMaxC= 1.00D-01 BMatC= 4.72D-05 BMatP= 2.69D-04
 IDIUse=3 WtCom= 9.98D-01 WtEn= 2.33D-03
 Coeff-Com: -0.601D-02 0.109D-01 0.482D-01 0.116D+00 0.343D+00 0.488D+00
 Coeff-En:   0.000D+00 0.000D+00 0.000D+00 0.000D+00 0.124D+00 0.876D+00
 Coeff:     -0.599D-02 0.109D-01 0.481D-01 0.116D+00 0.342D+00 0.489D+00
 Gap=     0.177 Goal=   None    Shift=    0.000
 RMSDP=7.97D-05 MaxDP=1.54D-02 DE=-1.64D-04 OVMax= 1.21D-03

 Cycle   7  Pass 1  IDiag  1:
 E= -880.909259465981     Delta-E=       -0.000032889267 Rises=F Damp=F
 DIIS: error= 2.78D-05 at cycle   7 NSaved=   7.
 NSaved= 7 IEnMin= 7 EnMin= -880.909259465981     IErMin= 7 ErrMin= 2.78D-05
 ErrMax= 2.78D-05  0.00D+00 EMaxC= 1.00D-01 BMatC= 8.79D-07 BMatP= 4.72D-05
 IDIUse=1 WtCom= 1.00D+00 WtEn= 0.00D+00
 Coeff-Com: -0.165D-02 0.248D-02 0.131D-01 0.361D-01 0.122D+00 0.210D+00
 Coeff-Com:  0.618D+00
 Coeff:     -0.165D-02 0.248D-02 0.131D-01 0.361D-01 0.122D+00 0.210D+00
 Coeff:      0.618D+00
 Gap=     0.176 Goal=   None    Shift=    0.000
 RMSDP=1.87D-05 MaxDP=2.89D-03 DE=-3.29D-05 OVMax= 1.48D-04

 Cycle   8  Pass 1  IDiag  1:
 E= -880.909260142629     Delta-E=       -0.000000676648 Rises=F Damp=F
 DIIS: error= 7.98D-06 at cycle   8 NSaved=   8.
 NSaved= 8 IEnMin= 8 EnMin= -880.909260142629     IErMin= 8 ErrMin= 7.98D-06
 ErrMax= 7.98D-06  0.00D+00 EMaxC= 1.00D-01 BMatC= 1.02D-07 BMatP= 8.79D-07
 IDIUse=1 WtCom= 1.00D+00 WtEn= 0.00D+00
 Coeff-Com: -0.138D-03 0.153D-04 0.849D-03 0.429D-02 0.189D-01 0.394D-01
 Coeff-Com:  0.277D+00 0.659D+00
 Coeff:     -0.138D-03 0.153D-04 0.849D-03 0.429D-02 0.189D-01 0.394D-01
 Coeff:      0.277D+00 0.659D+00
 Gap=     0.176 Goal=   None    Shift=    0.000
 RMSDP=9.27D-06 MaxDP=1.73D-03 DE=-6.77D-07 OVMax= 5.49D-05

 Cycle   9  Pass 1  IDiag  1:
 E= -880.909260211718     Delta-E=       -0.000000069089 Rises=F Damp=F
 DIIS: error= 4.19D-06 at cycle   9 NSaved=   9.
 NSaved= 9 IEnMin= 9 EnMin= -880.909260211718     IErMin= 9 ErrMin= 4.19D-06
 ErrMax= 4.19D-06  0.00D+00 EMaxC= 1.00D-01 BMatC= 1.78D-08 BMatP= 1.02D-07
 IDIUse=1 WtCom= 1.00D+00 WtEn= 0.00D+00
 Coeff-Com:  0.743D-04-0.213D-03-0.796D-03-0.104D-02-0.118D-02 0.792D-03
 Coeff-Com:  0.900D-01 0.355D+00 0.557D+00
 Coeff:      0.743D-04-0.213D-03-0.796D-03-0.104D-02-0.118D-02 0.792D-03
 Coeff:      0.900D-01 0.355D+00 0.557D+00
 Gap=     0.176 Goal=   None    Shift=    0.000
 RMSDP=2.25D-06 MaxDP=5.13D-04 DE=-6.91D-08 OVMax= 2.14D-05

 Cycle  10  Pass 1  IDiag  1:
 E= -880.909260223732     Delta-E=       -0.000000012013 Rises=F Damp=F
 DIIS: error= 9.01D-07 at cycle  10 NSaved=  10.
 NSaved=10 IEnMin=10 EnMin= -880.909260223732     IErMin=10 ErrMin= 9.01D-07
 ErrMax= 9.01D-07  0.00D+00 EMaxC= 1.00D-01 BMatC= 9.34D-10 BMatP= 1.78D-08
 IDIUse=1 WtCom= 1.00D+00 WtEn= 0.00D+00
 Coeff-Com:  0.456D-04-0.980D-04-0.464D-03-0.866D-03-0.232D-02-0.344D-02
 Coeff-Com:  0.163D-01 0.102D+00 0.251D+00 0.638D+00
 Coeff:      0.456D-04-0.980D-04-0.464D-03-0.866D-03-0.232D-02-0.344D-02
 Coeff:      0.163D-01 0.102D+00 0.251D+00 0.638D+00
 Gap=     0.176 Goal=   None    Shift=    0.000
 RMSDP=9.69D-07 MaxDP=2.05D-04 DE=-1.20D-08 OVMax= 4.89D-06

 Cycle  11  Pass 1  IDiag  1:
 E= -880.909260224456     Delta-E=       -0.000000000725 Rises=F Damp=F
 DIIS: error= 2.56D-07 at cycle  11 NSaved=  11.
 NSaved=11 IEnMin=11 EnMin= -880.909260224456     IErMin=11 ErrMin= 2.56D-07
 ErrMax= 2.56D-07  0.00D+00 EMaxC= 1.00D-01 BMatC= 5.20D-11 BMatP= 9.34D-10
 IDIUse=1 WtCom= 1.00D+00 WtEn= 0.00D+00
 Coeff-Com:  0.105D-04-0.194D-04-0.120D-03-0.237D-03-0.765D-03-0.129D-02
 Coeff-Com: -0.518D-04 0.132D-01 0.556D-01 0.250D+00 0.684D+00
 Coeff:      0.105D-04-0.194D-04-0.120D-03-0.237D-03-0.765D-03-0.129D-02
 Coeff:     -0.518D-04 0.132D-01 0.556D-01 0.250D+00 0.684D+00
 Gap=     0.176 Goal=   None    Shift=    0.000
 RMSDP=2.23D-07 MaxDP=3.23D-05 DE=-7.25D-10 OVMax= 1.94D-06

 Cycle  12  Pass 1  IDiag  1:
 E= -880.909260224498     Delta-E=       -0.000000000042 Rises=F Damp=F
 DIIS: error= 8.11D-08 at cycle  12 NSaved=  12.
 NSaved=12 IEnMin=12 EnMin= -880.909260224498     IErMin=12 ErrMin= 8.11D-08
 ErrMax= 8.11D-08  0.00D+00 EMaxC= 1.00D-01 BMatC= 6.89D-12 BMatP= 5.20D-11
 IDIUse=1 WtCom= 1.00D+00 WtEn= 0.00D+00
 Coeff-Com:  0.116D-05-0.113D-05-0.202D-04-0.412D-04-0.173D-03-0.309D-03
 Coeff-Com: -0.133D-02-0.215D-02 0.563D-02 0.676D-01 0.326D+00 0.605D+00
 Coeff:      0.116D-05-0.113D-05-0.202D-04-0.412D-04-0.173D-03-0.309D-03
 Coeff:     -0.133D-02-0.215D-02 0.563D-02 0.676D-01 0.326D+00 0.605D+00
 Gap=     0.176 Goal=   None    Shift=    0.000
 RMSDP=2.89D-08 MaxDP=4.61D-06 DE=-4.18D-11 OVMax= 9.45D-07

 Cycle  13  Pass 1  IDiag  1:
 E= -880.909260224503     Delta-E=       -0.000000000005 Rises=F Damp=F
 DIIS: error= 4.67D-08 at cycle  13 NSaved=  13.
 NSaved=13 IEnMin=13 EnMin= -880.909260224503     IErMin=13 ErrMin= 4.67D-08
 ErrMax= 4.67D-08  0.00D+00 EMaxC= 1.00D-01 BMatC= 1.50D-12 BMatP= 6.89D-12
 IDIUse=1 WtCom= 1.00D+00 WtEn= 0.00D+00
 Coeff-Com: -0.525D-06 0.159D-05 0.194D-05 0.315D-05-0.131D-04-0.206D-04
 Coeff-Com: -0.797D-03-0.291D-02-0.383D-02 0.845D-02 0.108D+00 0.359D+00
 Coeff-Com:  0.533D+00
 Coeff:     -0.525D-06 0.159D-05 0.194D-05 0.315D-05-0.131D-04-0.206D-04
 Coeff:     -0.797D-03-0.291D-02-0.383D-02 0.845D-02 0.108D+00 0.359D+00
 Coeff:      0.533D+00
 Gap=     0.176 Goal=   None    Shift=    0.000
 RMSDP=2.47D-08 MaxDP=4.14D-06 DE=-4.55D-12 OVMax= 4.53D-07

 Cycle  14  Pass 1  IDiag  1:
 E= -880.909260224493     Delta-E=        0.000000000010 Rises=F Damp=F
 DIIS: error= 1.11D-08 at cycle  14 NSaved=  14.
 NSaved=14 IEnMin=13 EnMin= -880.909260224503     IErMin=14 ErrMin= 1.11D-08
 ErrMax= 1.11D-08  0.00D+00 EMaxC= 1.00D-01 BMatC= 1.34D-13 BMatP= 1.50D-12
 IDIUse=1 WtCom= 1.00D+00 WtEn= 0.00D+00
 Coeff-Com: -0.328D-06 0.827D-06 0.244D-05 0.469D-05 0.609D-05 0.166D-04
 Coeff-Com: -0.300D-03-0.125D-02-0.239D-02-0.156D-02 0.239D-01 0.128D+00
 Coeff-Com:  0.288D+00 0.565D+00
 Coeff:     -0.328D-06 0.827D-06 0.244D-05 0.469D-05 0.609D-05 0.166D-04
 Coeff:     -0.300D-03-0.125D-02-0.239D-02-0.156D-02 0.239D-01 0.128D+00
 Coeff:      0.288D+00 0.565D+00
 Gap=     0.176 Goal=   None    Shift=    0.000
 RMSDP=2.93D-08 MaxDP=6.02D-06 DE= 1.00D-11 OVMax= 2.00D-07

 Cycle  15  Pass 1  IDiag  1:
 E= -880.909260224495     Delta-E=       -0.000000000002 Rises=F Damp=F
 DIIS: error= 3.99D-09 at cycle  15 NSaved=  15.
 NSaved=15 IEnMin=13 EnMin= -880.909260224503     IErMin=15 ErrMin= 3.99D-09
 ErrMax= 3.99D-09  0.00D+00 EMaxC= 1.00D-01 BMatC= 1.95D-14 BMatP= 1.34D-13
 IDIUse=1 WtCom= 1.00D+00 WtEn= 0.00D+00
 Coeff-Com: -0.114D-06 0.263D-06 0.114D-05 0.230D-05 0.506D-05 0.138D-04
 Coeff-Com: -0.613D-04-0.305D-03-0.839D-03-0.216D-02-0.196D-02 0.211D-01
 Coeff-Com:  0.834D-01 0.327D+00 0.574D+00
 Coeff:     -0.114D-06 0.263D-06 0.114D-05 0.230D-05 0.506D-05 0.138D-04
 Coeff:     -0.613D-04-0.305D-03-0.839D-03-0.216D-02-0.196D-02 0.211D-01
 Coeff:      0.834D-01 0.327D+00 0.574D+00
 Gap=     0.176 Goal=   None    Shift=    0.000
 RMSDP=5.38D-09 MaxDP=1.52D-06 DE=-2.27D-12 OVMax= 5.70D-08

 Cycle  16  Pass 1  IDiag  1:
 E= -880.909260224465     Delta-E=        0.000000000030 Rises=F Damp=F
 DIIS: error= 7.84D-10 at cycle  16 NSaved=  16.
 NSaved=16 IEnMin=13 EnMin= -880.909260224503     IErMin=16 ErrMin= 7.84D-10
 ErrMax= 7.84D-10  0.00D+00 EMaxC= 1.00D-01 BMatC= 7.26D-16 BMatP= 1.95D-14
 IDIUse=1 WtCom= 1.00D+00 WtEn= 0.00D+00
 Large coefficients: NSaved= 16 BigCof=    0.00 CofMax=   10.00 Det=-9.00D-15
 Inversion failed.  Reducing to 15 matrices.
 Coeff-Com: -0.244D-08 0.107D-06 0.245D-06 0.527D-06 0.328D-05 0.206D-05
 Coeff-Com:  0.178D-05-0.862D-04-0.614D-03-0.270D-02-0.215D-02 0.980D-02
 Coeff-Com:  0.919D-01 0.224D+00 0.679D+00
 Coeff:     -0.244D-08 0.107D-06 0.245D-06 0.527D-06 0.328D-05 0.206D-05
 Coeff:      0.178D-05-0.862D-04-0.614D-03-0.270D-02-0.215D-02 0.980D-02
 Coeff:      0.919D-01 0.224D+00 0.679D+00
 Gap=     0.176 Goal=   None    Shift=    0.000
 RMSDP=7.80D-09 MaxDP=1.73D-06 DE= 3.05D-11 OVMax= 1.13D-08

 Cycle  17  Pass 1  IDiag  1:
 E= -880.909260224501     Delta-E=       -0.000000000036 Rises=F Damp=F
 DIIS: error= 3.12D-10 at cycle  17 NSaved=  16.
 NSaved=16 IEnMin=12 EnMin= -880.909260224503     IErMin=16 ErrMin= 3.12D-10
 ErrMax= 3.12D-10  0.00D+00 EMaxC= 1.00D-01 BMatC= 1.40D-16 BMatP= 7.26D-16
 IDIUse=1 WtCom= 1.00D+00 WtEn= 0.00D+00
 Large coefficients: NSaved= 16 BigCof=    0.00 CofMax=   10.00 Det=-9.98D-16
 Inversion failed.  Reducing to 15 matrices.
 Coeff-Com:  0.455D-07 0.979D-07 0.247D-06 0.103D-05 0.559D-05 0.175D-04
 Coeff-Com:  0.110D-04-0.154D-03-0.123D-02-0.310D-02-0.377D-02 0.128D-01
 Coeff-Com:  0.452D-01 0.340D+00 0.611D+00
 Coeff:      0.455D-07 0.979D-07 0.247D-06 0.103D-05 0.559D-05 0.175D-04
 Coeff:      0.110D-04-0.154D-03-0.123D-02-0.310D-02-0.377D-02 0.128D-01
 Coeff:      0.452D-01 0.340D+00 0.611D+00
 Gap=     0.176 Goal=   None    Shift=    0.000
 RMSDP=3.14D-09 MaxDP=5.47D-07 DE=-3.64D-11 OVMax= 2.62D-09

 SCF Done:  E(RPBE1PBE) =  -880.909260225     A.U. after   17 cycles
            NFock= 17  Conv=0.31D-08     -V/T= 2.0043
 KE= 8.771327954951D+02 PE=-4.921702308817D+03 EE= 1.724322057824D+03
 Leave Link  502 at Tue Jan 10 05:16:01 2017, MaxMem= 13421772800 cpu:      1039.3
 (Enter /share/apps//g09/l601.exe)
 Copying SCF densities to generalized density rwf, IOpCl= 0 IROHF=0.

 **********************************************************************

            Population analysis using the SCF density.

 **********************************************************************

 Orbital symmetries:
       Occupied  (A) (A) (A) (A) (A) (A) (A) (A) (A) (A) (A) (A)
                 (A) (A) (A) (A) (A) (A) (A) (A) (A) (A) (A) (A)
                 (A) (A) (A) (A) (A) (A) (A) (A) (A) (A) (A) (A)
                 (A) (A) (A) (A) (A) (A) (A) (A) (A) (A) (A) (A)
                 (A) (A) (A) (A) (A) (A) (A) (A) (A) (A) (A) (A)
                 (A) (A) (A) (A) (A) (A)
       Virtual   (A) (A) (A) (A) (A) (A) (A) (A) (A) (A) (A) (A)
                 (A) (A) (A) (A) (A) (A) (A) (A) (A) (A) (A) (A)
                 (A) (A) (A) (A) (A) (A) (A) (A) (A) (A) (A) (A)
                 (A) (A) (A) (A) (A) (A) (A) (A) (A) (A) (A) (A)
                 (A) (A) (A) (A) (A) (A) (A) (A) (A) (A) (A) (A)
                 (A) (A) (A) (A) (A) (A) (A) (A) (A) (A) (A) (A)
                 (A) (A) (A) (A) (A) (A) (A) (A) (A) (A) (A) (A)
                 (A) (A) (A) (A) (A) (A) (A) (A) (A) (A) (A) (A)
                 (A) (A) (A) (A) (A) (A) (A) (A) (A) (A) (A) (A)
                 (A) (A) (A) (A) (A) (A) (A) (A) (A) (A) (A) (A)
                 (A) (A) (A) (A) (A) (A) (A) (A) (A) (A) (A) (A)
                 (A) (A) (A) (A) (A) (A) (A) (A) (A) (A) (A) (A)
                 (A) (A) (A) (A) (A) (A) (A) (A) (A) (A) (A) (A)
                 (A) (A) (A) (A) (A) (A) (A) (A) (A) (A) (A) (A)
                 (A) (A) (A) (A) (A) (A) (A) (A) (A) (A) (A) (A)
                 (A) (A) (A) (A) (A) (A) (A) (A) (A) (A) (A) (A)
                 (A) (A) (A) (A) (A) (A) (A) (A) (A) (A) (A) (A)
                 (A) (A) (A) (A) (A) (A) (A) (A) (A) (A) (A) (A)
                 (A) (A) (A) (A) (A) (A) (A) (A) (A) (A) (A) (A)
                 (A) (A) (A) (A) (A) (A) (A) (A) (A) (A) (A) (A)
                 (A) (A) (A) (A) (A) (A) (A) (A) (A) (A) (A) (A)
                 (A) (A) (A) (A) (A) (A) (A) (A) (A) (A) (A) (A)
                 (A) (A) (A) (A) (A) (A) (A) (A) (A) (A) (A) (A)
                 (A) (A) (A) (A) (A) (A) (A) (A) (A) (A) (A) (A)
                 (A) (A) (A) (A) (A) (A) (A) (A) (A) (A) (A) (A)
                 (A) (A) (A) (A) (A) (A) (A) (A) (A) (A) (A) (A)
                 (A) (A) (A) (A) (A) (A) (A) (A) (A) (A) (A) (A)
                 (A) (A) (A) (A) (A) (A) (A) (A) (A) (A) (A) (A)
                 (A) (A) (A) (A) (A) (A) (A) (A) (A) (A) (A) (A)
                 (A) (A) (A) (A) (A) (A) (A) (A) (A) (A) (A) (A)
                 (A) (A) (A) (A) (A) (A) (A) (A) (A) (A) (A) (A)
                 (A) (A) (A) (A) (A) (A) (A) (A) (A) (A) (A) (A)
                 (A) (A) (A) (A) (A) (A) (A) (A) (A) (A) (A) (A)
                 (A) (A) (A) (A) (A) (A) (A) (A) (A) (A) (A) (A)
                 (A) (A) (A) (A) (A) (A) (A) (A) (A) (A) (A) (A)
                 (A) (A)
 The electronic state is 1-A.
 Alpha  occ. eigenvalues --  -19.44853 -19.44196 -19.38840 -19.37347 -19.35602
 Alpha  occ. eigenvalues --  -19.34272 -10.57331 -10.47013 -10.44907 -10.44905
 Alpha  occ. eigenvalues --  -10.43920 -10.42892 -10.41390 -10.39313 -10.38962
 Alpha  occ. eigenvalues --  -10.38304 -10.37841  -1.34935  -1.27447  -1.25200
 Alpha  occ. eigenvalues --   -1.23576  -1.20820  -1.19115  -1.01101  -0.96844
 Alpha  occ. eigenvalues --   -0.95089  -0.89307  -0.87519  -0.85251  -0.83611
 Alpha  occ. eigenvalues --   -0.82077  -0.80552  -0.77471  -0.75843  -0.71250
 Alpha  occ. eigenvalues --   -0.70353  -0.68232  -0.67698  -0.66949  -0.65427
 Alpha  occ. eigenvalues --   -0.64030  -0.62538  -0.62341  -0.61135  -0.60647
 Alpha  occ. eigenvalues --   -0.60211  -0.59081  -0.58009  -0.57785  -0.57324
 Alpha  occ. eigenvalues --   -0.56615  -0.56017  -0.55908  -0.54749  -0.53898
 Alpha  occ. eigenvalues --   -0.52865  -0.52295  -0.51080  -0.50321  -0.48215
 Alpha  occ. eigenvalues --   -0.47830  -0.47076  -0.46273  -0.42136  -0.40622
 Alpha  occ. eigenvalues --   -0.37246
 Alpha virt. eigenvalues --   -0.19602  -0.13843  -0.11451  -0.09925  -0.09429
 Alpha virt. eigenvalues --   -0.08406  -0.08187  -0.07326  -0.06872  -0.06383
 Alpha virt. eigenvalues --   -0.05982  -0.05944  -0.05747  -0.04602  -0.04101
 Alpha virt. eigenvalues --   -0.03613  -0.03455  -0.03195  -0.02992  -0.02799
 Alpha virt. eigenvalues --   -0.02319  -0.01971  -0.01399  -0.00813  -0.00180
 Alpha virt. eigenvalues --   -0.00023   0.00312   0.00532   0.01036   0.01910
 Alpha virt. eigenvalues --    0.01926   0.02291   0.02598   0.03127   0.03346
 Alpha virt. eigenvalues --    0.04222   0.04663   0.04683   0.04993   0.05630
 Alpha virt. eigenvalues --    0.05879   0.06058   0.06340   0.06907   0.07275
 Alpha virt. eigenvalues --    0.07539   0.07959   0.08087   0.08623   0.09005
 Alpha virt. eigenvalues --    0.09261   0.09424   0.09736   0.10164   0.10422
 Alpha virt. eigenvalues --    0.10914   0.11364   0.12092   0.12198   0.12384
 Alpha virt. eigenvalues --    0.12831   0.12932   0.13519   0.13641   0.13828
 Alpha virt. eigenvalues --    0.14720   0.15062   0.15544   0.16169   0.16778
 Alpha virt. eigenvalues --    0.16945   0.17148   0.17759   0.17911   0.18342
 Alpha virt. eigenvalues --    0.18955   0.19333   0.20070   0.20918   0.21274
 Alpha virt. eigenvalues --    0.21973   0.22245   0.22355   0.22664   0.23495
 Alpha virt. eigenvalues --    0.23974   0.24438   0.24956   0.25439   0.25880
 Alpha virt. eigenvalues --    0.26571   0.27174   0.27504   0.28065   0.28240
 Alpha virt. eigenvalues --    0.28783   0.30067   0.30542   0.31362   0.32336
 Alpha virt. eigenvalues --    0.32873   0.33543   0.33923   0.34286   0.35613
 Alpha virt. eigenvalues --    0.35894   0.36241   0.36868   0.37704   0.37946
 Alpha virt. eigenvalues --    0.38854   0.39894   0.40943   0.41182   0.41646
 Alpha virt. eigenvalues --    0.43124   0.43945   0.45021   0.46368   0.46546
 Alpha virt. eigenvalues --    0.47764   0.48243   0.48719   0.49525   0.50017
 Alpha virt. eigenvalues --    0.51486   0.51760   0.52413   0.52815   0.53329
 Alpha virt. eigenvalues --    0.53795   0.54162   0.55352   0.55773   0.56094
 Alpha virt. eigenvalues --    0.57042   0.57423   0.57643   0.58300   0.59055
 Alpha virt. eigenvalues --    0.59378   0.59933   0.61483   0.62352   0.62673
 Alpha virt. eigenvalues --    0.62998   0.63684   0.63937   0.64679   0.65432
 Alpha virt. eigenvalues --    0.66057   0.66877   0.68407   0.69626   0.71746
 Alpha virt. eigenvalues --    0.74981   0.76714   0.78162   0.79318   0.81604
 Alpha virt. eigenvalues --    0.81995   0.83395   0.84879   0.85371   0.87791
 Alpha virt. eigenvalues --    0.90071   0.91086   0.92484   0.93926   0.94718
 Alpha virt. eigenvalues --    0.96012   0.96726   0.98586   0.99614   1.00388
 Alpha virt. eigenvalues --    1.01208   1.02491   1.03304   1.04925   1.06305
 Alpha virt. eigenvalues --    1.08116   1.08664   1.09619   1.10117   1.11176
 Alpha virt. eigenvalues --    1.13637   1.14492   1.16125   1.16898   1.17698
 Alpha virt. eigenvalues --    1.19804   1.21063   1.22399   1.23477   1.23576
 Alpha virt. eigenvalues --    1.24557   1.26940   1.28264   1.29432   1.30110
 Alpha virt. eigenvalues --    1.30513   1.31392   1.32186   1.32943   1.34315
 Alpha virt. eigenvalues --    1.34958   1.35308   1.36841   1.37518   1.39265
 Alpha virt. eigenvalues --    1.39709   1.40295   1.41511   1.42553   1.44221
 Alpha virt. eigenvalues --    1.44443   1.45365   1.45706   1.46058   1.47136
 Alpha virt. eigenvalues --    1.47518   1.48067   1.48765   1.49712   1.50272
 Alpha virt. eigenvalues --    1.51458   1.52287   1.53481   1.54987   1.55531
 Alpha virt. eigenvalues --    1.55977   1.56822   1.57700   1.58251   1.59285
 Alpha virt. eigenvalues --    1.59738   1.59915   1.61568   1.62115   1.62824
 Alpha virt. eigenvalues --    1.62991   1.65457   1.65665   1.66785   1.68993
 Alpha virt. eigenvalues --    1.69448   1.70680   1.71535   1.72381   1.73006
 Alpha virt. eigenvalues --    1.74101   1.77099   1.77957   1.78512   1.79609
 Alpha virt. eigenvalues --    1.80928   1.82469   1.83276   1.85673   1.87924
 Alpha virt. eigenvalues --    1.88550   1.90059   1.90833   1.92124   1.93119
 Alpha virt. eigenvalues --    1.94943   1.97246   1.99087   2.00934   2.01417
 Alpha virt. eigenvalues --    2.02211   2.03196   2.04292   2.05299   2.07136
 Alpha virt. eigenvalues --    2.07671   2.08990   2.10029   2.11319   2.12651
 Alpha virt. eigenvalues --    2.13653   2.14425   2.16599   2.19657   2.23326
 Alpha virt. eigenvalues --    2.23840   2.29252   2.33764   2.34170   2.34679
 Alpha virt. eigenvalues --    2.35167   2.35529   2.38723   2.39093   2.40476
 Alpha virt. eigenvalues --    2.41203   2.41623   2.42447   2.42835   2.43348
 Alpha virt. eigenvalues --    2.44258   2.45126   2.45296   2.45967   2.47469
 Alpha virt. eigenvalues --    2.47931   2.50111   2.52017   2.53946   2.54227
 Alpha virt. eigenvalues --    2.56357   2.57824   2.60358   2.63055   2.64224
 Alpha virt. eigenvalues --    2.65319   2.69278   2.70073   2.71588   2.72296
 Alpha virt. eigenvalues --    2.73946   2.74872   2.76899   2.77643   2.78725
 Alpha virt. eigenvalues --    2.78898   2.81639   2.82312   2.83143   2.84520
 Alpha virt. eigenvalues --    2.88470   2.90212   2.92243   2.93327   2.93522
 Alpha virt. eigenvalues --    2.94235   2.95800   2.96532   2.98205   2.99097
 Alpha virt. eigenvalues --    2.99938   3.01372   3.01932   3.05319   3.06717
 Alpha virt. eigenvalues --    3.08379   3.08477   3.10186   3.10758   3.12765
 Alpha virt. eigenvalues --    3.13492   3.14700   3.16970   3.18271   3.21568
 Alpha virt. eigenvalues --    3.24430   3.27955   3.30569   3.33970   3.39483
 Alpha virt. eigenvalues --    3.48499   3.56707   3.64299   3.66263   3.68006
 Alpha virt. eigenvalues --    3.68165   3.68952   3.70008   3.70276   3.72957
 Alpha virt. eigenvalues --    3.74780   3.75598   3.81901   3.85600   3.87196
 Alpha virt. eigenvalues --    3.92546   3.94606   3.95639   3.98048   4.00177
 Alpha virt. eigenvalues --    4.02202   4.05470   4.08345   4.09941   4.15021
 Alpha virt. eigenvalues --    4.19880   4.27464   4.91810   4.96703   4.97898
 Alpha virt. eigenvalues --    5.02135   5.07033   5.08141   5.19011   5.25542
 Alpha virt. eigenvalues --    5.29081   5.34322   5.35221   5.36702   5.54502
 Alpha virt. eigenvalues --    5.57965   5.61005   5.64540   5.70186   5.79802
 Alpha virt. eigenvalues --   23.65725  23.73635  23.74249  23.76087  23.78603
 Alpha virt. eigenvalues --   23.84310  23.88366  23.89731  23.90982  23.91624
 Alpha virt. eigenvalues --   24.07556  49.88453  49.88573  49.92067  49.94538
 Alpha virt. eigenvalues --   49.95024  50.00502
          Condensed to atoms (all electrons):
               1          2          3          4          5          6
     1  C    7.381785  -0.800962   0.087720  -0.197051  -0.002039  -0.166358
     2  C   -0.800962  13.225231  -7.787644   4.955376  -2.906753  -0.481231
     3  C    0.087720  -7.787644  20.884946 -13.901837   6.903628  -0.899032
     4  C   -0.197051   4.955376 -13.901837  32.289816 -13.805505  -1.387858
     5  C   -0.002039  -2.906753   6.903628 -13.805505  17.760958  -2.272795
     6  C   -0.166358  -0.481231  -0.899032  -1.387858  -2.272795  10.736440
     7  O   -0.101415  -0.015978   0.185502   0.042356   0.008294  -0.057063
     8  O   -0.018261   0.177907  -0.368364  -0.055750  -0.083172   0.165499
     9  O    0.049938  -0.044077  -0.203159   0.223360  -0.114915   0.088746
    10  O    0.152711  -0.051820  -0.105093   0.023289   0.017606  -0.002866
    11  H    0.404747  -0.127961   0.016941   0.026645  -0.002913   0.002215
    12  H    0.401182  -0.034295   0.022292  -0.012482   0.005987   0.000478
    13  H   -0.032684   0.307403   0.110233  -0.081522   0.032682  -0.015652
    14  H    0.001560  -0.022818   0.397200  -0.010066   0.024507  -0.009972
    15  H   -0.000134  -0.078769   0.027644   0.164512   0.169910   0.036806
    16  H   -0.004304   0.052245  -0.037430   0.049167  -0.087815  -0.011523
    17  H   -0.004954   0.034860  -0.002884  -0.032561  -0.044334   0.466889
    18  O    0.004023  -0.048690   0.062503  -0.423823   0.373065   0.083801
    19  C   -0.342979   0.089672   0.087578  -0.069433   0.025812   0.002983
    20  H    0.032991  -0.006213  -0.005700   0.001546  -0.000738   0.000079
    21  H   -0.023557  -0.000570   0.018725  -0.001735   0.002640   0.006484
    22  H   -0.009650   0.001245  -0.001053  -0.000113   0.000275  -0.001701
    23  C    0.001719  -0.157711   0.176485  -0.232829   0.244997  -0.303033
    24  H   -0.001435   0.002091  -0.003664   0.005853  -0.041098   0.035900
    25  H    0.000690  -0.002614   0.000888  -0.001786  -0.000348  -0.000953
    26  H    0.000013   0.001779   0.000127  -0.004872   0.043167  -0.015571
    27  C    0.003191   0.009805  -0.004781   0.074703  -0.333215  -0.031821
    28  H    0.000540   0.005475   0.034393   0.041338  -0.063141  -0.001493
    29  H    0.000421  -0.004108   0.017755  -0.145452   0.097108   0.000500
    30  H   -0.000088   0.001522  -0.001794   0.023758   0.001804  -0.001789
    31  C    0.134677   0.106460  -0.511899  -0.444870   0.023037   0.135849
    32  O   -0.004747  -0.035942   0.047956   0.035088   0.060982  -0.009860
    33  C   -0.182838   0.015718   0.460660  -0.027120  -0.218851  -0.135852
    34  H    0.000918  -0.000567   0.005193  -0.007018   0.002576  -0.002364
    35  H    0.004839  -0.012880   0.007439  -0.004416   0.002039   0.002461
    36  H   -0.000305   0.003695  -0.007806   0.002889  -0.002035   0.001534
               7          8          9         10         11         12
     1  C   -0.101415  -0.018261   0.049938   0.152711   0.404747   0.401182
     2  C   -0.015978   0.177907  -0.044077  -0.051820  -0.127961  -0.034295
     3  C    0.185502  -0.368364  -0.203159  -0.105093   0.016941   0.022292
     4  C    0.042356  -0.055750   0.223360   0.023289   0.026645  -0.012482
     5  C    0.008294  -0.083172  -0.114915   0.017606  -0.002913   0.005987
     6  C   -0.057063   0.165499   0.088746  -0.002866   0.002215   0.000478
     7  O    8.007208  -0.015475  -0.011244   0.005034   0.020455  -0.015373
     8  O   -0.015475   8.033822   0.012938   0.002695   0.000202   0.000022
     9  O   -0.011244   0.012938   7.975483   0.001776  -0.006144   0.000550
    10  O    0.005034   0.002695   0.001776   8.161519  -0.039670  -0.043916
    11  H    0.020455   0.000202  -0.006144  -0.039670   0.497534  -0.023747
    12  H   -0.015373   0.000022   0.000550  -0.043916  -0.023747   0.472247
    13  H   -0.039598   0.000538   0.005506   0.005977   0.000722  -0.003850
    14  H    0.007474  -0.003395  -0.060949  -0.000288   0.004729  -0.000048
    15  H   -0.000826  -0.032811   0.009382   0.000078   0.000014   0.000026
    16  H   -0.014637   0.008469  -0.004374   0.000159   0.000058  -0.000226
    17  H   -0.043233   0.000403  -0.000921  -0.000207   0.000015  -0.000047
    18  O    0.018240   0.023420  -0.000829  -0.000374  -0.000012   0.000002
    19  C    0.005204   0.002178  -0.016106   0.087126   0.012668   0.000296
    20  H    0.001129  -0.000000  -0.000469  -0.055687  -0.000349  -0.000183
    21  H    0.002149  -0.000063   0.001423  -0.051716  -0.001199   0.002123
    22  H   -0.000250   0.000001  -0.000551  -0.036362   0.001589   0.004347
    23  C    0.011490  -0.017637   0.003817  -0.000479  -0.000050   0.000027
    24  H   -0.001938   0.000376  -0.000047  -0.000014   0.000000   0.000000
    25  H    0.000510   0.000410   0.000119   0.000028   0.000000  -0.000000
    26  H   -0.000018   0.000065  -0.000012  -0.000000   0.000000  -0.000000
    27  C    0.003477   0.131024   0.012292   0.000274   0.000548  -0.000064
    28  H   -0.000005  -0.052460  -0.000827   0.000000   0.000013  -0.000001
    29  H   -0.000117  -0.024581   0.000819  -0.000006  -0.000003   0.000000
    30  H    0.000005  -0.055381  -0.000577   0.000003  -0.000000   0.000000
    31  C   -0.001342   0.088584   0.320674   0.084980  -0.003878  -0.001549
    32  O    0.017795  -0.007177  -0.162580   0.004291  -0.000036   0.000559
    33  C    0.038942   0.021509  -0.300663  -0.077350  -0.000203  -0.000724
    34  H   -0.000084  -0.000610  -0.013657  -0.000248  -0.000017   0.000000
    35  H    0.000058   0.000140  -0.001901   0.001216   0.000026   0.000004
    36  H   -0.000046  -0.000166   0.016324  -0.000162  -0.000006  -0.000000
              13         14         15         16         17         18
     1  C   -0.032684   0.001560  -0.000134  -0.004304  -0.004954   0.004023
     2  C    0.307403  -0.022818  -0.078769   0.052245   0.034860  -0.048690
     3  C    0.110233   0.397200   0.027644  -0.037430  -0.002884   0.062503
     4  C   -0.081522  -0.010066   0.164512   0.049167  -0.032561  -0.423823
     5  C    0.032682   0.024507   0.169910  -0.087815  -0.044334   0.373065
     6  C   -0.015652  -0.009972   0.036806  -0.011523   0.466889   0.083801
     7  O   -0.039598   0.007474  -0.000826  -0.014637  -0.043233   0.018240
     8  O    0.000538  -0.003395  -0.032811   0.008469   0.000403   0.023420
     9  O    0.005506  -0.060949   0.009382  -0.004374  -0.000921  -0.000829
    10  O    0.005977  -0.000288   0.000078   0.000159  -0.000207  -0.000374
    11  H    0.000722   0.004729   0.000014   0.000058   0.000015  -0.000012
    12  H   -0.003850  -0.000048   0.000026  -0.000226  -0.000047   0.000002
    13  H    0.463083  -0.007241   0.000044  -0.000885   0.000318  -0.000538
    14  H   -0.007241   0.433495  -0.007985   0.000173   0.000010   0.000318
    15  H    0.000044  -0.007985   0.460196   0.000464  -0.000183  -0.002017
    16  H   -0.000885   0.000173   0.000464   0.326303   0.000690  -0.001448
    17  H    0.000318   0.000010  -0.000183   0.000690   0.445163  -0.012454
    18  O   -0.000538   0.000318  -0.002017  -0.001448  -0.012454   7.951291
    19  C   -0.000459   0.000391   0.000106  -0.000870   0.000828  -0.000234
    20  H    0.000045  -0.000005  -0.000000  -0.000066  -0.000003   0.000000
    21  H   -0.000312  -0.000046  -0.000002  -0.000671  -0.000079  -0.000001
    22  H    0.000159  -0.000001   0.000000  -0.000008   0.000003   0.000000
    23  C   -0.000631  -0.000212   0.007011  -0.002235  -0.010544   0.133312
    24  H    0.000064  -0.000003  -0.000082  -0.000353   0.001788  -0.034959
    25  H   -0.000014   0.000001   0.000090   0.001832  -0.000972  -0.028934
    26  H   -0.000000  -0.000000   0.000013   0.000027   0.000206  -0.057634
    27  C    0.001674  -0.004663  -0.001567   0.001013  -0.000106   0.005901
    28  H    0.000001   0.000448  -0.005827  -0.000197  -0.000002  -0.000454
    29  H    0.000013  -0.000231   0.018773   0.000093   0.000002   0.001986
    30  H    0.000000  -0.000105  -0.000203   0.000037   0.000000  -0.000210
    31  C    0.000688   0.019881  -0.005290  -0.014613   0.002127   0.008694
    32  O    0.000757  -0.001655  -0.001300   0.237456  -0.001758  -0.001087
    33  C    0.004359  -0.010412  -0.002681   0.072226   0.001657   0.004637
    34  H   -0.000001  -0.000004   0.000004  -0.000117  -0.000000   0.000004
    35  H    0.000006   0.000020  -0.000001  -0.000899  -0.000000  -0.000006
    36  H   -0.000000   0.000011  -0.000001   0.000762   0.000001   0.000009
              19         20         21         22         23         24
     1  C   -0.342979   0.032991  -0.023557  -0.009650   0.001719  -0.001435
     2  C    0.089672  -0.006213  -0.000570   0.001245  -0.157711   0.002091
     3  C    0.087578  -0.005700   0.018725  -0.001053   0.176485  -0.003664
     4  C   -0.069433   0.001546  -0.001735  -0.000113  -0.232829   0.005853
     5  C    0.025812  -0.000738   0.002640   0.000275   0.244997  -0.041098
     6  C    0.002983   0.000079   0.006484  -0.001701  -0.303033   0.035900
     7  O    0.005204   0.001129   0.002149  -0.000250   0.011490  -0.001938
     8  O    0.002178  -0.000000  -0.000063   0.000001  -0.017637   0.000376
     9  O   -0.016106  -0.000469   0.001423  -0.000551   0.003817  -0.000047
    10  O    0.087126  -0.055687  -0.051716  -0.036362  -0.000479  -0.000014
    11  H    0.012668  -0.000349  -0.001199   0.001589  -0.000050   0.000000
    12  H    0.000296  -0.000183   0.002123   0.004347   0.000027   0.000000
    13  H   -0.000459   0.000045  -0.000312   0.000159  -0.000631   0.000064
    14  H    0.000391  -0.000005  -0.000046  -0.000001  -0.000212  -0.000003
    15  H    0.000106  -0.000000  -0.000002   0.000000   0.007011  -0.000082
    16  H   -0.000870  -0.000066  -0.000671  -0.000008  -0.002235  -0.000353
    17  H    0.000828  -0.000003  -0.000079   0.000003  -0.010544   0.001788
    18  O   -0.000234   0.000000  -0.000001   0.000000   0.133312  -0.034959
    19  C    5.244571   0.407152   0.418693   0.411406  -0.000785   0.000063
    20  H    0.407152   0.497713  -0.025640  -0.020295  -0.000012   0.000000
    21  H    0.418693  -0.025640   0.508330  -0.036874   0.000170  -0.000002
    22  H    0.411406  -0.020295  -0.036874   0.504487  -0.000004   0.000000
    23  C   -0.000785  -0.000012   0.000170  -0.000004   5.280192   0.396775
    24  H    0.000063   0.000000  -0.000002   0.000000   0.396775   0.510933
    25  H   -0.000040  -0.000000   0.000002  -0.000000   0.396448  -0.043978
    26  H    0.000002   0.000000  -0.000000   0.000000   0.408327  -0.017505
    27  C   -0.000431   0.000006  -0.000048   0.000008  -0.003677   0.000288
    28  H   -0.000069   0.000000   0.000000   0.000000   0.000009  -0.000001
    29  H    0.000014  -0.000000  -0.000000  -0.000000   0.001020   0.000005
    30  H    0.000007   0.000000  -0.000000   0.000000  -0.000315   0.000001
    31  C   -0.000158   0.009880  -0.007358  -0.000702  -0.005705   0.000470
    32  O    0.004858   0.000349   0.001369  -0.000086  -0.002939   0.000134
    33  C   -0.021586  -0.011060  -0.001682   0.004060  -0.003555   0.000049
    34  H   -0.000138   0.000006  -0.000001  -0.000002  -0.000020  -0.000000
    35  H    0.001461   0.000630   0.000104  -0.000090   0.000017   0.000000
    36  H    0.000039  -0.000060   0.000013  -0.000001   0.000022  -0.000000
              25         26         27         28         29         30
     1  C    0.000690   0.000013   0.003191   0.000540   0.000421  -0.000088
     2  C   -0.002614   0.001779   0.009805   0.005475  -0.004108   0.001522
[...]
 -0.00027672,0.00037762,0.00061056,0.00012374,-0.00011672,-0.00009176,0
 .00012450,-0.00013847,-0.00019106,0.00003877,-0.00011484,-0.00005385,-
 0.00116532,-0.00038094,-0.00319400,0.00045445,-0.00067212,-0.00059124,
 0.00005233,-0.00038713,0.00051249,0.00015608,-0.00006816,0.00012866,-0
 .28949928,-0.01524255,0.50859403,0.00058574,0.00008333,0.00007538,-0.0
 0020954,0.00091803,0.00195426,0.00398707,0.00446486,-0.00836334,-0.002
 31485,-0.00073478,-0.00020977,-0.00086825,-0.00104641,-0.00191010,-0.0
 0370923,-0.00335050,0.00198770,0.00247107,-0.00479937,0.00044923,0.001
 61789,-0.00030008,-0.00110549,-0.01750769,0.04843034,0.03895707,-0.001
 76544,0.00016709,-0.00123316,0.00008001,-0.00004033,0.00008755,-0.0000
 7469,-0.00003007,-0.00004526,-0.00054079,-0.00054002,-0.00028479,0.000
 04229,-0.00038700,0.00002557,0.00054558,-0.00019078,0.00003191,-0.0753
 3045,-0.07547435,0.06955742,-0.00034282,-0.00036522,0.00021000,0.00172
 681,-0.00268115,0.00189438,-0.00026003,0.00048237,0.00138740,0.0000519
 9,0.00002680,-0.00013129,0.00006694,-0.00015332,-0.00000341,-0.0000079
 7,-0.00014927,-0.00029353,-0.00052508,0.00067344,0.00083895,0.00003939
 ,-0.00002376,-0.00016351,-0.00000497,-0.00009999,-0.00030409,0.0000491
 9,-0.00007281,-0.00002162,-0.00003555,0.00102376,0.00005543,0.00012446
 ,-0.00036853,-0.00020816,0.00008418,-0.00023228,-0.00020722,0.00005572
 ,-0.00001663,0.00013063,-0.15469992,0.12080665,0.06829159,0.23458589,-
 0.00105265,-0.00051711,0.00076990,0.00525246,-0.00558819,-0.00854507,-
 0.01120967,-0.00864812,0.01196750,0.00658978,-0.00430899,-0.00321290,-
 0.02243263,-0.01196172,-0.01290004,-0.00376899,-0.01721138,0.02779633,
 -0.00332178,0.00921045,-0.00027920,0.00000814,0.00403888,0.00213543,0.
 05060407,-0.00817527,-0.04545523,0.00092678,0.00239208,0.00082628,-0.0
 0053119,0.00035293,-0.00030478,0.00032722,0.00006455,0.00018803,0.0007
 9107,0.00134765,0.00182689,0.00078153,0.00147701,-0.00053284,-0.000801
 74,0.00173271,-0.00022840,-0.08827878,-0.21572568,0.13466691,-0.000190
 37,0.00085585,0.00009932,0.00638577,-0.00383488,0.00479742,0.00042852,
 -0.00128182,-0.00126621,0.00000665,-0.00028118,-0.00007243,0.00038492,
 0.00061692,0.00044528,-0.00004554,0.00036843,0.00035256,-0.00052772,0.
 00250703,0.00069438,-0.00038924,0.00005686,-0.00022770,-0.00029454,-0.
 00008617,-0.00018712,0.00012783,-0.00003204,0.00010777,0.00076853,-0.0
 0197238,-0.00050946,-0.00055438,0.00075232,0.00044365,-0.00016338,0.00
 044603,0.00006354,0.00003225,0.00012838,0.00015995,0.12216049,-0.41435
 951,-0.05827651,-0.08061804,0.72585447,0.00060369,0.00055289,-0.001842
 42,0.00084237,0.00006660,-0.00063414,-0.00609975,-0.00377955,0.0014905
 2,-0.00033020,0.00103473,0.00138753,0.00821573,0.00714991,0.00060361,-
 0.00326059,0.00793342,-0.00780890,0.00006127,-0.00553338,0.00309252,-0
 .00002293,-0.00176756,-0.00300968,0.04073188,-0.04081823,-0.00560922,-
 0.00258820,0.00028728,0.00154129,-0.00028698,0.00004592,0.00021736,-0.
 00014465,-0.00008549,0.00025729,0.00012510,0.00004359,0.00023189,0.000
 03435,0.00035103,0.00002825,0.00003227,0.00043961,0.00024616,0.0718879
 9,0.11885697,-0.12119062,0.00075150,0.00036492,-0.00045688,-0.00186771
 ,0.00119108,-0.00014098,0.00047880,0.00001187,-0.00004219,0.00005724,-
 0.00024884,0.00030646,0.00033561,0.00018513,0.00004178,-0.00015408,0.0
 0009588,0.00010579,0.00031827,-0.00069666,-0.00063633,0.00007511,-0.00
 008793,0.00014155,0.00004307,0.00008125,0.00016975,-0.00008645,0.00002
 787,0.00000683,0.00024825,0.00101699,0.00057968,0.00004750,0.00000276,
 0.00003964,-0.00001047,-0.00011052,-0.00028423,-0.00006057,-0.00002489
 ,-0.00008595,0.06543397,-0.05583501,-0.12132210,-0.17162733,-0.0501431
 2,0.23889991,-0.00003395,-0.00003066,-0.00057695,0.00010371,0.00062481
 ,-0.00048517,0.00480872,0.00195980,0.00457818,-0.00169943,-0.00072517,
 0.00078251,0.00069229,0.00053689,0.00090304,0.00015282,0.00062973,-0.0
 0130060,-0.00006385,-0.00044813,0.00005152,0.00034116,0.00009342,-0.00
 026938,-0.01532175,-0.02538106,0.02640312,-0.00108384,-0.00090315,0.00
 010385,0.00005915,0.00000505,0.00001693,-0.00006716,-0.00005392,0.0000
 6128,0.00013944,0.00014099,-0.00000295,-0.00040508,-0.00054600,0.00038
 976,0.00035786,-0.00027278,0.00004583,0.00206818,0.00010380,0.00573137
 ,-0.00001422,-0.00006559,0.00000404,-0.00014482,0.00019808,-0.00034148
 ,-0.00017880,0.00011826,0.00036007,0.00002896,-0.00002266,-0.00007548,
 -0.00000228,-0.00005382,-0.00009630,0.00000558,-0.00004550,-0.00007042
 ,0.00005301,-0.00015326,-0.00004824,0.00001845,0.00001333,0.00001170,0
 .00001590,-0.00001533,0.00000437,-0.00000269,-0.00000318,-0.00000643,-
 0.00000287,0.00004157,0.00010262,-0.00005695,-0.00003421,-0.00000688,0
 .00000697,0.00001676,-0.00003970,0.00003322,-0.00001648,0.00005457,-0.
 10169173,-0.05442485,0.02469714,0.01039821,0.02206585,-0.00243698,0.59
 206451,-0.00013584,-0.00028770,-0.00003464,0.00002926,-0.00052820,-0.0
 0030359,0.00223207,0.00192129,-0.00371627,0.00043083,-0.00021229,-0.00
 042127,-0.00137776,-0.00037477,-0.00085904,-0.00024247,-0.00071181,0.0
 0147543,-0.00020593,0.00033540,-0.00006495,0.00002827,0.00032690,0.000
 36846,-0.00620139,0.00682114,0.00834695,-0.00101630,-0.00014993,0.0003
 1368,-0.00002059,0.00000245,0.00002509,-0.00005083,-0.00006503,0.00007
 381,-0.00008148,-0.00000431,0.00006554,0.00026807,0.00032937,-0.000192
 40,-0.00006212,0.00007807,0.00002995,0.00415225,0.00433581,-0.00213015
 ,0.00001769,0.00008088,-0.00001126,0.00052261,-0.00048788,0.00031953,-
 0.00000933,0.00009715,0.00040466,0.00011156,-0.00005202,0.00004761,0.0
 0003771,0.00004032,0.00003125,-0.00006154,-0.00001398,-0.00006129,-0.0
 0006153,0.00031979,0.00008380,-0.00003038,-0.00000905,-0.00002733,-0.0
 0003256,-0.00000339,-0.00002084,0.00001322,-0.00001384,0.00001552,-0.0
 0005882,-0.00016619,-0.00022908,0.00001397,0.00000936,-0.00004314,-0.0
 0001112,-0.00000401,0.00005262,0.00001296,-0.00000020,0.00001573,-0.04
 161294,-0.18712410,0.05605852,-0.00150113,-0.05085543,0.01603691,-0.01
 318614,0.54209171,0.00006715,0.00050855,-0.00077805,0.00115756,0.00003
 566,-0.00169999,-0.00039050,-0.00364301,0.00445328,0.00056501,-0.00029
 398,0.00023796,-0.00056917,-0.00049115,0.00004416,-0.00004598,-0.00028
 677,0.00024532,-0.00050285,0.00041073,0.00045272,-0.00027930,-0.000117
 46,-0.00027320,0.02759600,0.02538728,-0.02392932,-0.00078493,-0.000082
 04,0.00065488,-0.00007510,0.00003247,0.00006406,-0.00003942,-0.0000440
 6,0.00013513,0.00031370,0.00030846,0.00048200,0.00037490,0.00042951,-0
 .00025287,-0.00012525,0.00016060,-0.00008212,0.00598493,-0.00110258,0.
 00439422,0.00001859,0.00004583,-0.00001081,-0.00006905,0.00044924,-0.0
 0011046,0.00028037,0.00008087,-0.00027250,-0.00002804,-0.00001307,0.00
 017799,-0.00000244,0.00000261,0.00001086,-0.00002425,0.00000689,0.0000
 6150,0.00007295,-0.00016159,-0.00010329,-0.00000172,0.00002874,0.00001
 673,-0.00001597,0.00000595,0.00002168,-0.00000862,0.00001432,0.0000043
 7,0.00001873,0.00012118,0.00030477,0.00003357,0.00003231,0.00002691,0.
 00002370,0.00000606,-0.00003007,-0.00002601,0.00001971,0.00000696,0.01
 837858,0.05902285,-0.11761521,0.00023476,-0.00647989,0.01544414,-0.041
 53427,0.04403518,0.55005710,0.00003121,-0.00012307,-0.00016117,0.00001
 123,-0.00005893,0.00002035,0.00005490,0.00018107,-0.00034669,0.0001131
 6,0.00006943,0.00003852,-0.00004764,-0.00000751,-0.00004124,0.00000512
 ,0.00000662,0.00004582,-0.00008738,0.00002197,0.00000537,-0.00010288,-
 0.00001677,0.00007949,-0.00090180,-0.00010226,0.00237423,-0.00046540,-
 0.00000049,0.00019043,-0.00004850,-0.00001231,0.00003707,-0.00005056,-
 0.00000934,0.00004543,-0.00001528,-0.00002422,-0.00000081,0.00000763,-
 0.00001335,0.00002850,-0.00001737,-0.00000565,0.00000259,0.00072860,0.
 00042181,-0.00007626,0.00000514,0.00000703,-0.00000240,0.00000520,-0.0
 0001953,0.00000445,0.00004801,0.00007063,0.00011140,0.00002158,0.00000
 992,0.00004928,-0.00000345,0.00000358,0.00001340,-0.00002291,-0.000014
 78,-0.00002369,-0.00000343,0.00002785,0.00000555,-0.00000386,-0.000001
 69,-0.00000194,-0.00000006,0.00000132,0.00000109,0.00000220,0.00000141
 ,0.00000024,0.00007870,-0.00009376,-0.00006187,-0.00000626,0.00001122,
 0.00001072,-0.00002830,-0.00000167,0.00000456,-0.00001878,0.00002625,-
 0.00003690,-0.00281579,-0.00194114,-0.01097238,0.00069991,-0.00144843,
 0.00058341,-0.04581916,-0.02181774,-0.00783055,0.04500970,-0.00000569,
 0.00009650,-0.00008312,0.00029600,-0.00000974,-0.00040306,-0.00006833,
 -0.00021212,0.00112309,0.00004319,-0.00019452,-0.00005930,-0.00029519,
 -0.00020465,-0.00014055,-0.00005001,-0.00018409,0.00030654,-0.00010126
 ,0.00015725,0.00007259,0.00007471,0.00018711,-0.00008252,0.00256344,0.
 00195722,-0.00104854,-0.00001179,0.00001277,0.00010913,-0.00002012,0.0
 0000961,-0.00001007,0.00000973,-0.00000183,0.00002139,0.00007920,0.000
 06921,0.00009683,0.00000327,0.00000950,-0.00001027,0.00000289,0.000053
 14,-0.00001240,0.00098618,0.00027054,-0.00000624,0.00000470,0.00001582
 ,0.00000188,0.00004519,0.00006449,0.00004671,-0.00001830,-0.00003040,-
 0.00001705,-0.00001374,-0.00000753,-0.00002660,0.00001567,0.00000795,-
 0.00000056,0.00001866,0.00001279,-0.00000030,0.00001339,-0.00002541,-0
 .00001604,-0.00000215,0.00000702,0.00000336,-0.00000534,0.00000149,0.0
 0000343,-0.00000196,0.00000102,0.00000141,0.00001640,-0.00003740,0.000
 09270,-0.00005693,0.00002198,0.00005985,0.00001147,0.00005526,-0.00001
 328,0.00002030,-0.00000833,0.00005024,-0.00248962,-0.02291340,-0.02053
 101,-0.00186830,-0.00438584,0.00354323,-0.02144266,-0.20276026,-0.1375
 7761,0.02167760,0.22224642,-0.00007554,-0.00004328,-0.00011976,-0.0000
 2915,0.00007089,-0.00005965,-0.00028331,-0.00017045,0.00037603,0.00013
 547,0.00011911,0.00009217,0.00019228,0.00004507,0.00008062,0.00009425,
 0.00006409,-0.00017002,0.00001507,0.00001720,0.00000532,-0.00012169,-0
 .00023220,-0.00010714,0.00025991,0.00042003,-0.00121227,-0.00011350,-0
 .00004448,0.00022349,-0.00001697,-0.00001231,0.00002264,-0.00001475,-0
 .00000476,0.00002452,0.00001880,0.00001400,0.00002319,0.00001699,-0.00
 000660,0.00000666,-0.00002881,-0.00000299,-0.00001188,-0.00107444,-0.0
 0002757,-0.00024109,-0.00000586,-0.00000761,-0.00000413,-0.00006924,0.
 00003471,-0.00003962,0.00008305,0.00005972,-0.00013485,0.00002537,0.00
 000768,0.00008578,-0.00001624,0.00000196,0.00001870,-0.00002467,-0.000
 00934,0.00002960,0.00000127,-0.00002264,-0.00000489,0.00000235,-0.0000
 0123,0.00000136,0.00000393,0.00000041,0.00000015,-0.00000084,0.0000028
 1,-0.00000099,-0.00006337,0.00018176,0.00011252,0.00011233,-0.00002576
 ,-0.00002959,0.00000918,-0.00006662,-0.00000657,-0.00003569,0.00002366
 ,-0.00004261,0.00208471,0.01341479,0.01351423,-0.00003704,0.00458808,-
 0.00229947,-0.01066099,-0.14235697,-0.16480934,0.01401528,0.14871235,0
 .17557584,-0.00047057,-0.00034835,0.00096379,-0.00006022,-0.00010395,0
 .00022433,0.00011418,0.00078717,-0.00122832,-0.00003079,0.00011129,-0.
 00010504,-0.00013909,-0.00001391,-0.00007255,0.00010671,-0.00015466,0.
 00026194,-0.00014813,0.00014496,-0.00019191,-0.00001615,-0.00000834,0.
 00016467,-0.00320175,-0.00120755,0.00250716,-0.00039872,0.00044498,-0.
 00025879,-0.00002000,-0.00007180,-0.00004759,0.00010368,0.00009878,-0.
 00012027,-0.00013480,-0.00001533,-0.00013601,-0.00004219,-0.00005683,0
 .00005343,0.00002249,-0.00003561,0.00003084,-0.00001833,0.00058291,-0.
 00076088,-0.00000768,0.00001831,-0.00000383,0.00004783,-0.00011456,0.0
 0000978,-0.00009871,-0.00024736,-0.00065477,0.00015450,-0.00010566,-0.
 00006092,0.00005572,0.00016990,0.00013385,0.00001727,0.00001414,0.0000
 7194,-0.00001042,0.00006284,0.00001878,-0.00000527,-0.00000604,-0.0000
 0411,-0.00000422,0.00000001,-0.00000388,0.00000241,-0.00000492,0.00000
 141,-0.00003934,-0.00006666,-0.00014325,0.00000785,-0.00000808,-0.0000
 1206,-0.00000238,-0.00000344,0.00002315,0.00000518,-0.00000284,0.00000
 580,0.00991532,0.00428414,0.00537932,0.00004065,-0.00305611,-0.0009344
 6,-0.18600888,0.04390571,-0.12611701,-0.00213078,0.00093359,-0.0004875
 5,0.19765109,-0.00028330,-0.00010313,0.00115163,-0.00002627,-0.0001008
 7,0.00022551,-0.00078022,-0.00010546,-0.00057325,0.00014803,0.00011480
 ,-0.00012307,-0.00008922,-0.00014195,-0.00011069,0.00011706,-0.0002834
 4,0.00038728,-0.00002709,0.00024626,-0.00022935,-0.00004723,-0.0000069
 4,0.00000723,-0.00000593,0.00015636,-0.00180423,0.00096810,0.00024791,
 -0.00059569,0.00006522,0.00000704,-0.00014139,0.00017440,0.00012990,-0
 .00018495,-0.00007854,-0.00000770,-0.00009326,-0.00001238,0.00001655,-
 0.00000786,-0.00001749,0.00001789,0.00000251,-0.00111272,-0.00014962,-
 0.00164038,-0.00001315,0.00000966,0.00000710,-0.00003794,-0.00000236,0
 .00001701,-0.00031277,-0.00041266,-0.00041259,-0.00008216,-0.00001512,
 -0.00034435,0.00004714,0.00007990,0.00006082,0.00018559,0.00010792,0.0
 0001555,-0.00000379,0.00000408,0.00000512,-0.00000415,-0.00000127,0.00
 000264,0.00000272,0.00000437,0.00000114,-0.00000017,-0.00000025,-0.000
 00148,-0.00002338,0.00000379,0.00000103,-0.00000664,0.00000108,0.00001
 531,0.00000456,0.00000960,0.00000557,0.00000545,-0.00001001,0.00000897
 ,0.02414524,-0.00912044,0.02217371,-0.00258168,-0.00352463,-0.00012325
 ,0.04684120,-0.05378410,0.04539899,-0.01797715,0.00702106,-0.01639229,
 -0.05136531,0.06181428,-0.00003719,0.00008255,-0.00030784,0.00010937,0
 .00014555,-0.00037520,0.00102850,0.00032187,0.00062761,-0.00011063,-0.
 00017732,0.00008852,-0.00003932,0.00000523,0.00002552,-0.00000723,0.00
 000752,-0.00001259,-0.00003432,-0.00004723,0.00002041,0.00001276,0.000
 01483,0.00001146,0.00080876,0.00061531,0.00078448,-0.00080982,-0.00077
 698,-0.00053824,0.00008145,0.00002083,-0.00003093,-0.00007627,-0.00008
 840,0.00007364,0.00004637,0.00005870,0.00006350,0.00000146,0.00000858,
 -0.00001748,0.00002743,-0.00002114,0.00001102,0.00015962,0.00025438,0.
 00009002,0.00000392,-0.00000152,0.00000583,0.00002498,-0.00003266,-0.0
 0001109,-0.00046699,-0.00009095,0.00103883,0.00011860,-0.00008033,-0.0
 0025658,0.00007388,-0.00001350,-0.00017508,0.00002478,-0.00000988,-0.0
 0017678,-0.00000102,0.00002257,0.00000623,-0.00000257,-0.00000080,-0.0
 0000071,0.00000074,0.00000025,0.00000003,0.00000135,-0.00000067,0.0000
 0044,-0.00001189,0.00000202,0.00000856,-0.00001459,-0.00000414,0.00000
 580,0.00000108,0.00000525,0.00000138,0.00001104,-0.00000641,0.00000656
 ,-0.01253794,0.00471467,-0.01498082,0.00086809,-0.00106956,-0.00006709
 ,-0.12678278,0.04452310,-0.15422664,-0.01362113,0.00582679,-0.01288338
 ,0.13935312,-0.04916622,0.16869803,0.00002164,-0.00001609,-0.00012875,
 -0.00004381,0.00009105,0.00002073,0.00080215,0.00052393,-0.00004063,-0
 .00014576,-0.00001701,0.00012501,0.00013138,0.00005330,0.00011981,0.00
 006260,0.00007813,-0.00013816,0.00000966,-0.00003175,-0.00003712,-0.00
 001515,-0.00003743,-0.00003715,-0.00010005,-0.00124767,0.00088548,-0.0
 0021499,-0.00026787,-0.00015119,0.00001874,0.00000424,-0.00001073,-0.0
 0002499,-0.00002834,0.00002652,0.00001686,-0.00000490,-0.00000010,-0.0
 0002383,-0.00004690,0.00002212,0.00003452,-0.00003468,0.00000246,0.000
 16467,-0.00039913,0.00007703,-0.00000003,-0.00001200,0.00000377,-0.000
 04637,0.00002998,-0.00004975,-0.00012882,0.00001349,0.00036346,-0.0000
 0910,0.00004689,-0.00007337,-0.00000503,-0.00003342,-0.00004754,0.0000
 2953,-0.00001011,-0.00007112,0.00000727,-0.00001830,-0.00000421,-0.000
 00048,0.00000009,0.00000273,0.00000696,-0.00000011,0.00000346,0.000000
 94,0.00000169,-0.00000338,0.00001405,0.00000365,-0.00000058,-0.0000095
 9,-0.00000437,-0.00000234,-0.00000227,0.00000223,-0.00000522,0.0000035
 1,-0.00000449,-0.00000265,-0.00798753,0.00415044,0.00127714,0.00094429
 ,0.00104334,-0.00099599,-0.25875066,0.03600176,0.12334993,0.00576730,-
 0.00036419,-0.00391061,-0.01525646,0.00218399,0.01179643,0.27472882,0.
 00001646,-0.00010069,0.00009569,-0.00004417,0.00019354,0.00020933,0.00
 070502,0.00078676,0.00065286,-0.00048026,-0.00006036,0.00011334,0.0001
 4372,0.00015307,0.00015419,0.00003589,0.00014198,-0.00022052,0.0000696
 0,-0.00015004,-0.00010070,0.00013100,0.00003554,0.00000621,-0.00387668
 ,-0.00523598,0.00505442,0.00000997,0.00010589,-0.00017640,-0.00000233,
 -0.00002334,-0.00000021,-0.00000331,0.00001736,-0.00002972,-0.00002654
 ,-0.00003662,-0.00008193,-0.00018246,-0.00024817,0.00017347,0.00011274
 ,-0.00009621,0.00002939,-0.00005508,-0.00020773,0.00019101,-0.00001661
 ,-0.00002680,0.00000850,0.00001869,-0.00006457,-0.00005624,-0.00003970
 ,0.00001126,0.00005933,-0.00000235,0.00001788,-0.00003776,-0.00001801,
 -0.00001248,0.00000847,0.00001286,-0.00001740,-0.00002893,-0.00001377,
 0.00001107,0.00003530,0.00000691,-0.00000238,-0.00000548,0.00000405,-0
 .00000921,-0.00001068,0.00000144,-0.00000620,-0.00000271,0.00002037,-0
 .00004665,-0.00006357,-0.00002265,-0.00001364,0.00000341,-0.00000799,0
 .00000824,-0.00000460,0.00000946,0.00000291,0.00001053,-0.02643162,0.0
 0742696,0.01192562,0.00054914,0.00054778,-0.00006543,0.04443501,-0.059
 18116,-0.02625078,0.02115208,-0.00130264,-0.00835120,0.00543859,-0.002
 22248,-0.00504229,-0.04164947,0.05960451,0.00002426,0.00001954,-0.0002
 0648,0.00017859,0.00003231,-0.00025361,-0.00006924,-0.00033748,0.00038
 204,0.00028617,0.00002733,0.00001131,-0.00012814,-0.00013993,-0.000130
 83,0.00002162,-0.00014701,0.00024856,-0.00006383,0.00011418,0.00000713
 ,-0.00017645,-0.00002250,0.00003436,0.00262556,0.00388147,-0.00107811,
 -0.00032699,-0.00031323,-0.00002617,0.00000455,0.00001498,-0.00000066,
 -0.00003232,-0.00003585,0.00004428,0.00004263,0.00003684,0.00009274,0.
 00007396,0.00009323,-0.00006568,-0.00005594,0.00002662,0.00000093,-0.0
 0020628,0.00040929,-0.00043278,-0.00000043,0.00000872,0.00000535,-0.00
 000542,-0.00001759,0.00003416,-0.00007124,0.00002254,0.00031470,-0.000
 00768,0.00004064,-0.00001852,0.00000325,-0.00002787,-0.00003088,0.0000
 0724,-0.00000450,-0.00005048,-0.00000661,0.00003598,0.00000530,-0.0000
 0861,-0.00000175,-0.00000056,0.00000060,0.00000650,0.00000398,0.000003
 03,0.00000409,0.00000035,0.00005006,-0.00004271,-0.00001852,-0.0000080
 9,0.00001631,0.00001299,-0.00001807,0.00000042,0.00000638,-0.00000767,
 0.00000415,-0.00003245,0.01304229,-0.00383710,-0.01106394,-0.00088819,
 -0.00223878,0.00059825,0.12043309,-0.02185112,-0.11310286,0.01550988,-
 0.00003301,-0.00801558,-0.01786008,0.00245718,0.01249256,-0.13236552,0
 .02179810,0.12023275\\-0.00000467,-0.00003356,0.00000901,-0.00001137,0
 .00001663,-0.00000382,-0.00000745,-0.00000728,0.00000653,-0.00003500,-
 0.00000130,-0.00002322,-0.00000795,0.00003154,0.00001023,0.00001869,-0
 .00002102,0.00000516,-0.00000452,0.00000426,-0.00000793,0.00001786,-0.
 00001460,0.00000719,0.00001114,-0.00000376,-0.00001196,-0.00000313,0.0
 0002020,0.00000067,0.00000378,-0.00000616,-0.00000833,0.00000534,0.000
 00924,-0.00000973,0.00000711,-0.00000874,-0.00000074,-0.00000939,-0.00
 000370,-0.00001002,0.00000492,-0.00000405,-0.00000209,0.00002337,0.000
 00653,-0.00001081,0.00000210,0.00000951,-0.00000131,0.00000332,0.00000
 557,0.00000854,0.00001253,-0.00002608,-0.00003486,0.00000292,-0.000003
 55,0.00000207,0.00000671,0.00000829,-0.00000123,0.00001293,-0.00000169
 ,-0.00000144,0.00001423,-0.00002184,-0.00001017,0.00000992,0.00000710,
 0.00000832,0.00000327,0.00000595,0.00001549,-0.00000117,0.00000725,0.0
 0000442,-0.00001644,0.00002488,0.00002721,-0.00000427,-0.00000533,-0.0
 0000151,-0.00000509,0.00000247,-0.00000597,-0.00001527,0.00000223,0.00
 000331,0.00001538,-0.00002986,-0.00000508,-0.00004086,0.00002512,0.000
 02514,-0.00000167,-0.00000316,0.00001477,-0.00000949,0.00000105,-0.000
 00208,0.00000426,-0.00000076,-0.00000027,-0.00000205,0.00000862,0.0000
 0450\\\@


 EVANS BOLDLY PUT 50 ATM. OF ETHYLENE IN A CELL WITH 25 ATM. OF OXYGEN.
 THE APPARATUS SUBSEQUENTLY BLEW UP, BUT LUCKILY NOT BEFORE HE
 OBTAINED THE SPECTRA SHOWN IN FIGURE 8.
 A.J.MERER AND R.S.MULLIKEN, CHEM.REV. 69, 645 (1969)
 Job cpu time:       0 days  6 hours 28 minutes 16.4 seconds.
 File lengths (MBytes):  RWF=    766 Int=      0 D2E=      0 Chk=     19 Scr=      1
 Normal termination of Gaussian 09 at Tue Jan 10 07:27:20 2017.
